<VTKFile type="PolyData" version="1.0" byte_order="LittleEndian" header_type="UInt64">
  <PolyData>
    <Piece NumberOfPoints="961" NumberOfVerts="0" NumberOfLines="0" NumberOfStrips="0" NumberOfPolys="900">
      <PointData>
        <DataArray type="Float32" Name="zvalue" NumberOfComponents="1" format="ascii" RangeMin="0.12618477863167732" RangeMax="2.312535423847214">
          2.312535423847214 2.312535423847214 2.312535423847214 2.312535423847214 2.312535423847214 2.312535423847214
          2.312535423847214 2.312535423847214 2.312535423847214 2.312535423847214 2.312535423847214 2.312535423847214
          2.312535423847214 2.312535423847214 2.312535423847214 2.312535423847214 2.312535423847214 2.312535423847214
          2.312535423847214 2.312535423847214 2.312535423847214 2.312535423847214 2.312535423847214 2.312535423847214
          2.312535423847214 2.312535423847214 2.312535423847214 2.312535423847214 2.312535423847214 2.312535423847214
          2.312535423847214 2.312535423847214 2.312535423847214 2.312535423847214 2.312535423847214 2.312535423847214
          2.312535423847214 2.312535423847214 2.312535423847214 2.312535423847214 2.312535423847214 2.312535423847214
          2.312535423847214 2.312535423847214 2.312535423847214 2.312535423847214 2.312535423847214 2.312535423847214
          2.312535423847214 2.312535423847214 2.312535423847214 2.312535423847214 2.312535423847214 2.312535423847214
          2.312535423847214 2.312535423847214 2.312535423847214 2.312535423847214 2.312535423847214 2.312535423847214
          2.312535423847214 2.312535423847214 2.312535423847214 2.312535423847214 2.312535423847214 2.312535423847214
          2.312535423847214 2.312535423847214 2.312535423847214 2.312535423847214 2.312535423847214 2.312535423847214
          2.312535423847214 2.312535423847214 2.312535423847214 2.312535423847214 2.312535423847214 2.312535423847214
          2.312535423847214 2.312535423847214 2.312535423847214 2.312535423847214 2.312535423847214 2.312535423847214
          2.312535423847214 2.312535423847214 2.312535423847214 2.312535423847214 2.312535423847214 2.312535423847214
          2.312535423847214 2.312535423847214 2.312535423847214 2.312535423847214 2.312535423847214 2.312535423847214
          2.312535423847214 2.312535423847214 2.312535423847214 2.312535423847214 2.312535423847214 2.312535423847214
          2.312535423847214 2.312535423847214 2.312535423847214 2.312535423847214 2.312535423847214 2.312535423847214
          2.312535423847214 2.312535423847214 2.312535423847214 2.312535423847214 2.312535423847214 2.312535423847214
          2.312535423847214 2.312535423847214 2.312535423847214 2.312535423847214 2.312535423847214 2.312535423847214
          2.312535423847214 2.312535423847214 2.312535423847214 2.312535423847214 2.312535423847214 2.312535423847214
          2.312535423847214 2.312535423847214 2.312535423847214 2.312535423847214 2.312535423847214 2.312535423847214
          2.312535423847214 2.312535423847214 2.312535423847214 2.312535423847214 2.312535423847214 2.312535423847214
          2.312535423847214 2.312535423847214 2.312535423847214 2.312535423847214 2.312535423847214 2.312535423847214
          2.312535423847214 2.312535423847214 2.312535423847214 2.312535423847214 2.312535423847214 2.312535423847214
          2.312535423847214 2.312535423847214 2.312535423847214 2.312535423847214 2.312535423847214 2.312535423847214
          2.312535423847214 2.312535423847214 2.312535423847214 2.312535423847214 2.312535423847214 2.312535423847214
          2.312535423847214 2.312535423847214 2.312535423847214 2.312535423847214 2.312535423847214 2.312535423847214
          2.312535423847214 2.312535423847214 2.312535423847214 2.312535423847214 2.312535423847214 2.312535423847214
          2.312535423847214 2.312535423847214 2.312535423847214 2.312535423847214 2.312535423847214 2.312535423847214
          2.312535423847214 2.312535423847214 2.312535423847214 2.312535423847214 2.312535423847214 2.312535423847214
          2.312535423847214 2.312535423847214 2.312535423847214 2.312535423847214 2.312535423847214 2.312535423847214
          2.312535423847214 2.312535423847214 2.312535423847214 2.312535423847214 2.312535423847214 2.312535423847214
          2.312535423847214 2.312535423847214 2.193169757308721 2.0940553316487027 2.0603520030091724 2.0658533316029875
          2.1274968343770015 2.266940661701859 2.312535423847214 2.312535423847214 2.312535423847214 2.312535423847214
          2.312535423847214 2.312535423847214 2.312535423847214 2.312535423847214 2.312535423847214 2.312535423847214
          2.312535423847214 2.312535423847214 2.312535423847214 2.312535423847214 2.312535423847214 2.312535423847214
          2.312535423847214 2.312535423847214 2.312535423847214 2.312535423847214 2.312535423847214 2.312535423847214
          2.276552617417302 2.0905520843107457 1.898962048383605 1.7119509993190083 1.5827016898707333 1.5293144224348527
          1.5347048621707309 1.6092823459824606 1.7661016622791679 1.976513726345425 2.213942301159471 2.312535423847214
          2.312535423847214 2.312535423847214 2.312535423847214 2.312535423847214 2.312535423847214 2.312535423847214
          2.312535423847214 2.312535423847214 2.312535423847214 2.312535423847214 2.312535423847214 2.312535423847214
          2.312535423847214 2.312535423847214 2.312535423847214 2.312535423847214 2.312535423847214 2.312535423847214
          2.104821089281939 1.896462770371535 1.7073207169508002 1.5130382738607369 1.3279565301305238 1.1885360438493502
          1.1159904977487922 1.1132095664403796 1.1803738336111542 1.3376035826804025 1.5745251604123482 1.8631096468729433
          2.1714360716242083 2.312535423847214 2.312535423847214 2.312535423847214 2.312535423847214 2.312535423847214
          2.312535423847214 2.312535423847214 2.312535423847214 2.312535423847214 2.312535423847214 2.312535423847214
          2.312535423847214 2.312535423847214 2.312535423847214 2.312535423847214 2.312535423847214 2.312535423847214
          2.0241788851408677 1.7758051951289322 1.572915294391065 1.395050231132149 1.2340215462781685 1.0873375345646372
          0.94686519898819 0.8567166856725119 0.8580554805720878 0.9147752824026328 1.036287448207354 1.2709803680445484
          1.6084859444111275 1.9772266455103464 2.312535423847214 2.312535423847214 2.312535423847214 2.312535423847214
          2.312535423847214 2.312535423847214 2.312535423847214 2.312535423847214 2.312535423847214 2.312535423847214
          2.312535423847214 2.312535423847214 2.312535423847214 2.312535423847214 2.312535423847214 2.312535423847214
          2.014630931934464 1.7215441133585558 1.4842800390279778 1.3047025188855141 1.1786286067393872 1.0669887981722554
          0.9147587132906609 0.7319353947272205 0.6371811064337057 0.6816351559640313 0.7868354772871413 0.8828837577607533
          1.063905206867472 1.4023607563424898 1.8128643898968222 2.21457959076675 2.312535423847214 2.312535423847214
          2.312535423847214 2.312535423847214 2.312535423847214 2.312535423847214 2.312535423847214 2.312535423847214
          2.312535423847214 2.312535423847214 2.312535423847214 2.312535423847214 2.312535423847214 2.312535423847214
          2.107236188769288 1.7601400604802855 1.463480651006934 1.2470464060935675 1.129115457222649 1.0455536159339702
          0.9010500086250203 0.690938261522982 0.5152770101461347 0.4765291763691837 0.5829654036509361 0.7647419566156419
          0.8647468659350424 0.9561453076680444 1.243319087631631 1.64006640670441 2.0432298192554152 2.312535423847214
          2.312535423847214 2.312535423847214 2.312535423847214 2.312535423847214 2.312535423847214 2.312535423847214
          2.312535423847214 2.312535423847214 2.312535423847214 2.312535423847214 2.312535423847214 2.312535423847214
          2.304718799823987 1.9154376080192383 1.5600555079683351 1.2727892535131073 1.1096613669872442 1.053002386483153
          0.9335465308268157 0.7104925880188369 0.480822373257557 0.35925336543674274 0.3661608390044652 0.534385032975131
          0.7829724026618976 0.8955447400962718 0.9303438167924002 1.1443213743710896 1.482141696220152 1.860186268881744
          2.2522288709815594 2.312535423847214 2.312535423847214 2.312535423847214 2.312535423847214 2.312535423847214
          2.312535423847214 2.312535423847214 2.312535423847214 2.312535423847214 2.312535423847214 2.312535423847214
          2.312535423847214 2.1447995996422766 1.7517609426191103 1.4068799075501783 1.152674916068613 1.0672429685653262
          1.0146342356841802 0.832668700355837 0.5391407176310311 0.31417582031038527 0.23676351264038334 0.26472772497986663
          0.48074594615204796 0.7715602678069268 0.8984260272432677 0.9333563845344779 1.0952397584308142 1.3599994391753232
          1.7082712455654439 2.099344897061407 2.312535423847214 2.312535423847214 2.312535423847214 2.312535423847214
          2.312535423847214 2.312535423847214 2.312535423847214 2.312535423847214 2.312535423847214 2.312535423847214
          2.312535423847214 2.312535423847214 2.0051679230900747 1.616281526054486 1.291024991887985 1.0968525589803124
          1.0720919684257655 0.9981884300715252 0.766811932745975 0.4453334722862607 0.22907475957362006 0.15562894358602375
          0.1933029661840677 0.4468790715452805 0.7506582019636137 0.879369711035571 0.937592721798274 1.0699031262006065
          1.27473919443797 1.59939488705513 2.019892166375776 2.312535423847214 2.312535423847214 2.312535423847214
          2.312535423847214 2.312535423847214 2.312535423847214 2.312535423847214 2.312535423847214 2.312535423847214
          2.312535423847214 2.312535423847214 2.312535423847214 1.899229595478925 1.5256193638470397 1.2303897299990587
          1.0820762365152496 1.0919663888987903 1.0191235162637855 0.7813303419473939 0.45984924933672466 0.2225540837891183
          0.12618477863167732 0.22350380547616527 0.5171259153131874 0.7715737995876267 0.8710761037938008 0.9534378958469983
          1.0666682077080656 1.2335405654364677 1.5442286712969633 1.986209995316999 2.312535423847214 2.312535423847214
          2.312535423847214 2.312535423847214 2.312535423847214 2.312535423847214 2.312535423847214 2.312535423847214
          2.312535423847214 2.312535423847214 2.312535423847214 2.3034893911770045 1.8573052278399396 1.5008120894975847
          1.2272263061900839 1.0838581102955194 1.1037600617026753 1.076981907582138 0.8990708634639385 0.6009899432192841
          0.3169243024450416 0.22004827837728783 0.3953481451271918 0.6464259208401937 0.8233183337308199 0.914376003375013
          1.0001938182784467 1.0910942249570317 1.2344780778615567 1.5318144683638317 1.968300641828669 2.312535423847214
          2.312535423847214 2.312535423847214 2.312535423847214 2.312535423847214 2.312535423847214 2.312535423847214
          2.312535423847214 2.312535423847214 2.312535423847214 2.312535423847214 2.312535423847214 1.8822309880309804
          1.5263549898998996 1.2627216167568445 1.1028655692709033 1.111530685887111 1.1414226449300635 1.0449742650265206
          0.8398534430974369 0.5887631548385076 0.5114063571691634 0.6573319291559043 0.8235853152351759 0.9302444293125558
          1.0019536379567215 1.0691359340380537 1.1411718458717433 1.277268979948505 1.5517193844302513 1.9902028224662753
          2.312535423847214 2.312535423847214 2.312535423847214 2.312535423847214 2.312535423847214 2.312535423847214
          2.312535423847214 2.312535423847214 2.312535423847214 2.312535423847214 2.312535423847214 2.312535423847214
          1.9460220750554202 1.5903514903204983 1.3177693944227422 1.1452366186946088 1.1132543182970243 1.1707019808576173
          1.1656130780434042 1.0688205360652476 0.9402978577500609 0.9033355947986133 0.9725599062093694 1.0386376129074961
          1.0799515889583586 1.1143799312066307 1.159246803157349 1.230136900906079 1.3722898731204871 1.675803631141291
          2.147892967160158 2.312535423847214 2.312535423847214 2.312535423847214 2.312535423847214 2.312535423847214
          2.312535423847214 2.312535423847214 2.312535423847214 2.312535423847214 2.312535423847214 2.312535423847214
          2.312535423847214 2.0382220529087336 1.6900773292014304 1.4044566184865879 1.2119353992790642 1.1456003402489494
          1.1791787851563318 1.219850692511116 1.2094889157586426 1.1944853878724127 1.2069542242705944 1.2194991085560052
          1.216443234644151 1.207843705612035 1.213874958622327 1.2561997772362916 1.3452774550203301 1.5430455437742545
          1.9079619407000104 2.312535423847214 2.312535423847214 2.312535423847214 2.312535423847214 2.312535423847214
          2.312535423847214 2.312535423847214 2.312535423847214 2.312535423847214 2.312535423847214 2.312535423847214
          2.312535423847214 2.312535423847214 2.205946427215255 1.8462645229659767 1.548922209799434 1.327740480674426
          1.2139510601105707 1.1746855853694724 1.1940861282491277 1.2274650293809841 1.2754014354103307 1.3206353944023048
          1.3150659813633117 1.2874591112522842 1.269732410111437 1.2747107935966266 1.3338249161290656 1.4975051381198319
          1.7840749461088719 2.1888625103198547 2.312535423847214 2.312535423847214 2.312535423847214 2.312535423847214
          2.312535423847214 2.312535423847214 2.312535423847214 2.312535423847214 2.312535423847214 2.312535423847214
          2.312535423847214 2.312535423847214 2.312535423847214 2.312535423847214 2.064329702972347 1.743801174344842
          1.4975583455197479 1.3212958391786394 1.1935200904804095 1.1437659452305926 1.1683824915538865 1.2307192411875567
          1.2933873662764812 1.2974156656038254 1.2906697628326456 1.287866084543804 1.3283291099952952 1.4693706991223494
          1.7226924846911928 2.0696065587099013 2.312535423847214 2.312535423847214 2.312535423847214 2.312535423847214
          2.312535423847214 2.312535423847214 2.312535423847214 2.312535423847214 2.312535423847214 2.312535423847214
          2.312535423847214 2.312535423847214 2.312535423847214 2.312535423847214 2.312535423847214 2.312535423847214
          1.9700946235619632 1.695876865908427 1.4842762927943636 1.3001816881945023 1.1812079048459752 1.1520051133448697
          1.1920643194865062 1.2548122723535793 1.2934607713616366 1.3258481916728362 1.372511283444989 1.5090637090641528
          1.7451185665593008 2.0460986419598415 2.312535423847214 2.312535423847214 2.312535423847214 2.312535423847214
          2.312535423847214 2.312535423847214 2.312535423847214 2.312535423847214 2.312535423847214 2.312535423847214
          2.312535423847214 2.312535423847214 2.312535423847214 2.312535423847214 2.312535423847214 2.312535423847214
          2.312535423847214 2.2046225563308317 1.9305087077721383 1.713192698741369 1.521319570417891 1.3811121332044407
          1.3166202773528157 1.3128053788386804 1.3750065201842845 1.462957552258264 1.5435260222245137 1.6660990600269965
          1.8883521342678886 2.1833310904847933 2.312535423847214 2.312535423847214 2.312535423847214 2.312535423847214
          2.312535423847214 2.312535423847214 2.312535423847214 2.312535423847214 2.312535423847214 2.312535423847214
          2.312535423847214 2.312535423847214 2.312535423847214 2.312535423847214 2.312535423847214 2.312535423847214
          2.312535423847214 2.312535423847214 2.312535423847214 2.2210756536286658 2.0289508307708153 1.8570312005243301
          1.7341851682634541 1.6873028612948655 1.6793757893298107 1.7457039835114394 1.8522622587678088 1.9641763751962449
          2.1559086031441344 2.312535423847214 2.312535423847214 2.312535423847214 2.312535423847214 2.312535423847214
          2.312535423847214 2.312535423847214 2.312535423847214 2.312535423847214 2.312535423847214 2.312535423847214
          2.312535423847214 2.312535423847214 2.312535423847214 2.312535423847214 2.312535423847214 2.312535423847214
          2.312535423847214 2.312535423847214 2.312535423847214 2.312535423847214 2.312535423847214 2.312535423847214
          2.2694856781850183 2.160478652055955 2.1363046101066683 2.167907276351838 2.2692654303881987 2.312535423847214
          2.312535423847214 2.312535423847214 2.312535423847214 2.312535423847214 2.312535423847214 2.312535423847214
          2.312535423847214 2.312535423847214 2.312535423847214 2.312535423847214 2.312535423847214 2.312535423847214
          2.312535423847214 2.312535423847214 2.312535423847214 2.312535423847214 2.312535423847214 2.312535423847214
          2.312535423847214 2.312535423847214 2.312535423847214 2.312535423847214 2.312535423847214 2.312535423847214
          2.312535423847214 2.312535423847214 2.312535423847214 2.312535423847214 2.312535423847214 2.312535423847214
          2.312535423847214 2.312535423847214 2.312535423847214 2.312535423847214 2.312535423847214 2.312535423847214
          2.312535423847214 2.312535423847214 2.312535423847214 2.312535423847214 2.312535423847214 2.312535423847214
          2.312535423847214 2.312535423847214 2.312535423847214 2.312535423847214 2.312535423847214 2.312535423847214
          2.312535423847214 2.312535423847214 2.312535423847214 2.312535423847214 2.312535423847214 2.312535423847214
          2.312535423847214 2.312535423847214 2.312535423847214 2.312535423847214 2.312535423847214 2.312535423847214
          2.312535423847214 2.312535423847214 2.312535423847214 2.312535423847214 2.312535423847214 2.312535423847214
          2.312535423847214 2.312535423847214 2.312535423847214 2.312535423847214 2.312535423847214 2.312535423847214
          2.312535423847214 2.312535423847214 2.312535423847214 2.312535423847214 2.312535423847214 2.312535423847214
          2.312535423847214 2.312535423847214 2.312535423847214 2.312535423847214 2.312535423847214 2.312535423847214
          2.312535423847214 2.312535423847214 2.312535423847214 2.312535423847214 2.312535423847214 2.312535423847214
          2.312535423847214 2.312535423847214 2.312535423847214 2.312535423847214 2.312535423847214 2.312535423847214
          2.312535423847214 2.312535423847214 2.312535423847214 2.312535423847214 2.312535423847214 2.312535423847214
          2.312535423847214 2.312535423847214 2.312535423847214 2.312535423847214 2.312535423847214 2.312535423847214
          2.312535423847214 2.312535423847214 2.312535423847214 2.312535423847214 2.312535423847214 2.312535423847214
          2.312535423847214 2.312535423847214 2.312535423847214 2.312535423847214 2.312535423847214 2.312535423847214
          2.312535423847214 2.312535423847214 2.312535423847214 2.312535423847214 2.312535423847214 2.312535423847214
          2.312535423847214 2.312535423847214 2.312535423847214 2.312535423847214 2.312535423847214 2.312535423847214
          2.312535423847214 2.312535423847214 2.312535423847214 2.312535423847214 2.312535423847214 2.312535423847214
          2.312535423847214 2.312535423847214 2.312535423847214 2.312535423847214 2.312535423847214 2.312535423847214
          2.312535423847214 2.312535423847214 2.312535423847214 2.312535423847214 2.312535423847214 2.312535423847214
          2.312535423847214 2.312535423847214 2.312535423847214 2.312535423847214 2.312535423847214 2.312535423847214
          2.312535423847214 2.312535423847214 2.312535423847214 2.312535423847214 2.312535423847214 2.312535423847214
          2.312535423847214 2.312535423847214 2.312535423847214 2.312535423847214 2.312535423847214 2.312535423847214
          2.312535423847214 
        </DataArray>
      </PointData>
      <CellData>
        <DataArray type="Float32" Name="averaged zvalue" NumberOfComponents="1" format="ascii" RangeMin="0.17465512346948353" RangeMax="2.312535423847214">
          2.312535423847214 2.312535423847214 2.312535423847214 2.312535423847214 2.312535423847214 2.312535423847214
          2.312535423847214 2.312535423847214 2.312535423847214 2.312535423847214 2.312535423847214 2.312535423847214
          2.312535423847214 2.312535423847214 2.312535423847214 2.312535423847214 2.312535423847214 2.312535423847214
          2.312535423847214 2.312535423847214 2.312535423847214 2.312535423847214 2.312535423847214 2.312535423847214
          2.312535423847214 2.312535423847214 2.312535423847214 2.312535423847214 2.312535423847214 2.312535423847214
          2.312535423847214 2.312535423847214 2.312535423847214 2.312535423847214 2.312535423847214 2.312535423847214
          2.312535423847214 2.312535423847214 2.312535423847214 2.312535423847214 2.312535423847214 2.312535423847214
          2.312535423847214 2.312535423847214 2.312535423847214 2.312535423847214 2.312535423847214 2.312535423847214
          2.312535423847214 2.312535423847214 2.312535423847214 2.312535423847214 2.312535423847214 2.312535423847214
          2.312535423847214 2.312535423847214 2.312535423847214 2.312535423847214 2.312535423847214 2.312535423847214
          2.312535423847214 2.312535423847214 2.312535423847214 2.312535423847214 2.312535423847214 2.312535423847214
          2.312535423847214 2.312535423847214 2.312535423847214 2.312535423847214 2.312535423847214 2.312535423847214
          2.312535423847214 2.312535423847214 2.312535423847214 2.312535423847214 2.312535423847214 2.312535423847214
          2.312535423847214 2.312535423847214 2.312535423847214 2.312535423847214 2.312535423847214 2.312535423847214
          2.312535423847214 2.312535423847214 2.312535423847214 2.312535423847214 2.312535423847214 2.312535423847214
          2.312535423847214 2.312535423847214 2.312535423847214 2.312535423847214 2.312535423847214 2.312535423847214
          2.312535423847214 2.312535423847214 2.312535423847214 2.312535423847214 2.312535423847214 2.312535423847214
          2.312535423847214 2.312535423847214 2.312535423847214 2.312535423847214 2.312535423847214 2.312535423847214
          2.312535423847214 2.312535423847214 2.312535423847214 2.312535423847214 2.312535423847214 2.312535423847214
          2.312535423847214 2.312535423847214 2.312535423847214 2.312535423847214 2.312535423847214 2.312535423847214
          2.312535423847214 2.312535423847214 2.312535423847214 2.312535423847214 2.312535423847214 2.312535423847214
          2.312535423847214 2.312535423847214 2.312535423847214 2.312535423847214 2.312535423847214 2.312535423847214
          2.312535423847214 2.312535423847214 2.312535423847214 2.312535423847214 2.312535423847214 2.312535423847214
          2.312535423847214 2.312535423847214 2.312535423847214 2.312535423847214 2.312535423847214 2.312535423847214
          2.312535423847214 2.312535423847214 2.312535423847214 2.312535423847214 2.312535423847214 2.312535423847214
          2.312535423847214 2.312535423847214 2.312535423847214 2.312535423847214 2.312535423847214 2.312535423847214
          2.312535423847214 2.312535423847214 2.312535423847214 2.312535423847214 2.312535423847214 2.312535423847214
          2.312535423847214 2.2826940072125907 2.228073984162963 2.194869545588076 2.1878190455766466 2.2046052534186042
          2.2548770859433223 2.301136733310875 2.312535423847214 2.312535423847214 2.312535423847214 2.312535423847214
          2.312535423847214 2.312535423847214 2.312535423847214 2.312535423847214 2.312535423847214 2.312535423847214
          2.312535423847214 2.312535423847214 2.312535423847214 2.312535423847214 2.312535423847214 2.312535423847214
          2.312535423847214 2.312535423847214 2.312535423847214 2.312535423847214 2.303539722239736 2.2480438873556188
          2.1536462450971947 2.0291545572146372 1.8954694445367912 1.8166058617408654 1.7975561548044359 1.8343343435332953
          1.9424553760851224 2.0805228685434165 2.203881718799831 2.2878871431752783 2.312535423847214 2.312535423847214
          2.312535423847214 2.312535423847214 2.312535423847214 2.312535423847214 2.312535423847214 2.312535423847214
          2.312535423847214 2.312535423847214 2.312535423847214 2.312535423847214 2.312535423847214 2.312535423847214
          2.312535423847214 2.312535423847214 2.312535423847214 2.260606840205895 2.1475929752294975 1.9927220472625957
          1.8024682808764718 1.6129769629234685 1.452786315792404 1.354135663475932 1.3233048371986889 1.3593926520511812
          1.4733403561382963 1.663686032929336 1.907022708697547 2.140255860875959 2.2772605857914625 2.312535423847214
          2.312535423847214 2.312535423847214 2.312535423847214 2.312535423847214 2.312535423847214 2.312535423847214
          2.312535423847214 2.312535423847214 2.312535423847214 2.312535423847214 2.312535423847214 2.312535423847214
          2.312535423847214 2.312535423847214 2.2404462891706274 2.0543351483497383 1.8375010872933677 1.6429372532113873
          1.4623576920554637 1.2905884712085167 1.1376738268831752 1.0270271065647112 0.9859930576084429 1.0166035407565637
          1.117260036725386 1.3048491398361635 1.5792752799352416 1.9050645771046562 2.193433391207246 2.312535423847214
          2.312535423847214 2.312535423847214 2.312535423847214 2.312535423847214 2.312535423847214 2.312535423847214
          2.312535423847214 2.312535423847214 2.312535423847214 2.312535423847214 2.312535423847214 2.312535423847214
          2.312535423847214 2.2380593008690264 2.0182223385702756 1.7514520581640833 1.5344257618583723 1.3628241627870288
          1.21867229558049 1.0757766480764306 0.9202242103926772 0.793174596455407 0.7583971071605843 0.8103253490564734
          0.9051954914144704 1.063514195220032 1.3364330689164095 1.7002344340401963 2.079301512505283 2.288046465577098
          2.312535423847214 2.312535423847214 2.312535423847214 2.312535423847214 2.312535423847214 2.312535423847214
          2.312535423847214 2.312535423847214 2.312535423847214 2.312535423847214 2.312535423847214 2.312535423847214
          2.2612106150777325 2.048635651257813 1.73994893919506 1.4790878023717589 1.2912861053074272 1.1645000496953801
          1.0480552573676583 0.8934339454027297 0.7132273449217496 0.5902306719190611 0.5945777106044642 0.7040444983794376
          0.8248020143996446 0.9419202845578281 1.166432589627409 1.5246526601438382 1.9276850516558492 2.2207200644291483
          2.312535423847214 2.312535423847214 2.312535423847214 2.312535423847214 2.312535423847214 2.312535423847214
          2.312535423847214 2.312535423847214 2.312535423847214 2.312535423847214 2.312535423847214 2.310581267841407
          2.159982005114932 1.8357173413092867 1.5141163682421657 1.2732444194002133 1.1347064041966535 1.0403044976166471
          0.8976606858511607 0.695825807856099 0.5115727525908541 0.4293050977391316 0.490010112999929 0.6662661989759017
          0.8270014913272135 0.9116951826229397 1.0685323966157914 1.3774621412318206 1.7564060477654304 2.1170450957414833
          2.2974587856308 2.312535423847214 2.312535423847214 2.312535423847214 2.312535423847214 2.312535423847214
          2.312535423847214 2.312535423847214 2.312535423847214 2.312535423847214 2.312535423847214 2.268647311790173
          2.029179237526153 1.6585334915392156 1.3480998962750586 1.1505921262835725 1.061135239429976 0.9584629633374965
          0.7539621342081302 0.5111578748044525 0.3477537679112671 0.3067263605153645 0.4115048857778777 0.6424159123990009
          0.8371258594520911 0.9144177421666044 1.0258153335321956 1.2704255670493447 1.6026496624606659 1.9800078206225384
          2.2441611539343485 2.312535423847214 2.312535423847214 2.312535423847214 2.312535423847214 2.312535423847214
          2.312535423847214 2.312535423847214 2.312535423847214 2.312535423847214 2.312535423847214 2.1937595926066944
          1.879502497851487 1.51648684202794 1.2368580936217723 1.0972156030100042 1.0380394006866993 0.9030758247143793
          0.645988705754776 0.38193119245032425 0.23391075902760308 0.21260578684758535 0.3464139272153157 0.6124608718669673
          0.8250035520123448 0.9121862111528977 1.0090229977410432 1.1999703795611785 1.4856011915584668 1.856725799014439
          2.1860769777829026 2.312535423847214 2.312535423847214 2.312535423847214 2.312535423847214 2.312535423847214
          2.312535423847214 2.312535423847214 2.312535423847214 2.312535423847214 2.312535423847214 2.1323670915658566
          1.7615746021176313 1.4158289029471423 1.1750858793456513 1.0857467882050296 1.0453425759149666 0.8913635552571699
          0.6133312490790886 0.33920289124643094 0.18336064139510985 0.17465512346948353 0.3452029396296752 0.6215592471024272
          0.8181694540951532 0.9103691081186611 1.0069004878884862 1.1612127734457776 1.4129758295566328 1.787431430011217
          2.1577932523468006 2.312535423847214 2.312535423847214 2.312535423847214 2.312535423847214 2.312535423847214
          2.312535423847214 2.312535423847214 2.312535423847214 2.312535423847214 2.3102739156796614 2.0931399095857706
          1.6957415691658722 1.371011872383442 1.155887595749978 1.0904151993530586 1.0729579686118473 0.9441266573143141
          0.6853100994918353 0.40007939469754217 0.22142786081078128 0.24127125190308057 0.44560094668918454 0.689610992367957
          0.8450860601218151 0.9347709553235647 1.0278485366976355 1.1564452689907805 1.386015445739705 1.757638444201616
          2.144895371210024 2.312535423847214 2.312535423847214 2.312535423847214 2.312535423847214 2.312535423847214
          2.312535423847214 2.312535423847214 2.312535423847214 2.312535423847214 2.3102739156796614 2.0888902577237847
          1.691675823817101 1.3792787505861033 1.169167900628338 1.1005036067890523 1.108423825025497 1.0406124202506652
          0.846222128701795 0.5866327109000675 0.4092855232075001 0.44603367745738687 0.6306728275896164 0.8058934997796863
          0.9174731010937776 0.9964148484120587 1.0753989557863188 1.186003282159709 1.3988202276510362 1.760509329272257
          2.1458935779973434 2.312535423847214 2.312535423847214 2.312535423847214 2.312535423847214 2.312535423847214