<VTKFile type="PolyData" version="1.0" byte_order="LittleEndian" header_type="UInt64">
  <PolyData>
    <Piece NumberOfPoints="961" NumberOfVerts="0" NumberOfLines="0" NumberOfStrips="0" NumberOfPolys="900">
      <PointData>
        <DataArray type="Float32" Name="zvalue" NumberOfComponents="1" format="ascii" RangeMin="-0.19243270759127765" RangeMax="2.312535423847214">
          2.312535423847214 2.312535423847214 2.312535423847214 2.312535423847214 2.312535423847214 2.312535423847214
          2.312535423847214 2.312535423847214 2.312535423847214 2.312535423847214 2.312535423847214 2.312535423847214
          2.312535423847214 2.312535423847214 2.312535423847214 2.312535423847214 2.312535423847214 2.312535423847214
          2.312535423847214 2.312535423847214 2.312535423847214 2.312535423847214 2.312535423847214 2.312535423847214
          2.312535423847214 2.312535423847214 2.312535423847214 2.312535423847214 2.312535423847214 2.312535423847214
          2.312535423847214 2.312535423847214 2.312535423847214 2.312535423847214 2.312535423847214 2.312535423847214
          2.312535423847214 2.312535423847214 2.312535423847214 2.312535423847214 2.312535423847214 2.312535423847214
          2.312535423847214 2.312535423847214 2.312535423847214 2.312535423847214 2.312535423847214 2.312535423847214
          2.312535423847214 2.312535423847214 2.312535423847214 2.312535423847214 2.312535423847214 2.312535423847214
          2.312535423847214 2.312535423847214 2.312535423847214 2.312535423847214 2.312535423847214 2.312535423847214
          2.312535423847214 2.312535423847214 2.312535423847214 2.312535423847214 2.312535423847214 2.312535423847214
          2.312535423847214 2.312535423847214 2.312535423847214 2.312535423847214 2.312535423847214 2.312535423847214
          2.312535423847214 2.312535423847214 2.312535423847214 2.312535423847214 2.312535423847214 2.312535423847214
          2.312535423847214 2.312535423847214 2.312535423847214 2.312535423847214 2.312535423847214 2.312535423847214
          2.312535423847214 2.312535423847214 2.312535423847214 2.312535423847214 2.312535423847214 2.312535423847214
          2.312535423847214 2.312535423847214 2.312535423847214 2.312535423847214 2.312535423847214 2.312535423847214
          2.312535423847214 2.312535423847214 2.312535423847214 2.312535423847214 2.312535423847214 2.312535423847214
          2.312535423847214 2.312535423847214 2.312535423847214 2.312535423847214 2.312535423847214 2.312535423847214
          2.304422410744428 2.312535423847214 2.312535423847214 2.312535423847214 2.312535423847214 2.312535423847214
          2.312535423847214 2.312535423847214 2.312535423847214 2.312535423847214 2.312535423847214 2.312535423847214
          2.312535423847214 2.312535423847214 2.312535423847214 2.312535423847214 2.312535423847214 2.312535423847214
          2.312535423847214 2.312535423847214 2.312535423847214 2.312535423847214 2.312535423847214 2.312535423847214
          2.312535423847214 2.312535423847214 2.312535423847214 2.2649614396525775 2.1032035189723923 1.9732393852825447
          1.8794814466540473 1.8418249183391289 1.8529517001301967 1.8878534315477222 1.9450406555984232 2.033849871059166
          2.17153569666376 2.312535423847214 2.312535423847214 2.312535423847214 2.312535423847214 2.312535423847214
          2.312535423847214 2.312535423847214 2.312535423847214 2.312535423847214 2.312535423847214 2.312535423847214
          2.312535423847214 2.312535423847214 2.312535423847214 2.312535423847214 2.312535423847214 2.312535423847214
          2.312535423847214 2.312535423847214 2.273500422075324 2.038089878550354 1.851867898413294 1.7066261846682325
          1.5981179855720073 1.5274138513655715 1.4929697784788625 1.4828840734386322 1.4866383932714766 1.513622633347885
          1.584842617781982 1.711677935723325 1.89221753196414 2.119839868706902 2.312535423847214 2.312535423847214
          2.312535423847214 2.312535423847214 2.312535423847214 2.312535423847214 2.312535423847214 2.312535423847214
          2.312535423847214 2.312535423847214 2.312535423847214 2.312535423847214 2.312535423847214 2.312535423847214
          2.312535423847214 2.312535423847214 2.102494569792542 1.852198255117103 1.6451164689720246 1.4956383605739487
          1.3945357288967755 1.33320085158734 1.297452836837927 1.2735832463684336 1.255252256017808 1.2389070824246882
          1.2341635059175307 1.2730015770544165 1.3753224916525975 1.5364022354385025 1.7424968271827408 1.9776429654874033
          2.25736546273044 2.312535423847214 2.312535423847214 2.312535423847214 2.312535423847214 2.312535423847214
          2.312535423847214 2.312535423847214 2.312535423847214 2.312535423847214 2.312535423847214 2.312535423847214
          2.312535423847214 2.312535423847214 1.9646572365132304 1.6967667107987592 1.497458607344015 1.3490721479712666
          1.2558263666760927 1.2066061264994887 1.1788198120716256 1.1589543036317358 1.1399015011734792 1.1218018178287943
          1.101472451676211 1.0846635033961969 1.098324724818875 1.1759139560394987 1.3097818283442322 1.4833080069361053
          1.6975378635819476 1.9779400321186098 2.312535423847214 2.312535423847214 2.312535423847214 2.312535423847214
          2.312535423847214 2.312535423847214 2.312535423847214 2.312535423847214 2.312535423847214 2.312535423847214
          2.312535423847214 2.312535423847214 1.9464839306827708 1.6110704662691167 1.416939182538003 1.2856621395257937
          1.1936542671524906 1.1422911290573634 1.1137775515900576 1.0918337770862838 1.0709890811349772 1.0487088275538288
          1.02140157172751 0.9926988263074084 0.9700152299960628 0.9803381282964998 1.058163717319922 1.18312093958924
          1.332622254404716 1.5077350668441667 1.7458918937268142 2.056615690168659 2.312535423847214 2.312535423847214
          2.312535423847214 2.312535423847214 2.312535423847214 2.312535423847214 2.312535423847214 2.312535423847214
          2.312535423847214 2.312535423847214 2.040227876734748 1.6326046097165234 1.3802981837272421 1.2648057077447141
          1.1803303118820854 1.117895539978383 1.0805112293022259 1.0497309133879293 1.0189295324972536 0.9886736297756004
          0.9522966018080822 0.9073348311123735 0.8596183654142019 0.8300626850308156 0.8538623560228497 0.9619301315814066
          1.1067147537646895 1.24491417144512 1.3778377665954673 1.5494798327933088 1.821622537033392 2.2498738444822606
          2.312535423847214 2.312535423847214 2.312535423847214 2.312535423847214 2.312535423847214 2.312535423847214
          2.312535423847214 2.312535423847214 2.2113945639266634 1.757376604909012 1.414998870982322 1.238157492836445
          1.1609654291149705 1.0976802416695113 1.0516683545951955 1.0137989926737028 0.9751402940246937 0.9284290165730734
          0.878573191113132 0.8218723502377198 0.7556563098994219 0.6914551924752167 0.6608441183696466 0.7295150590962559
          0.8913939458997024 1.0562933676712076 1.1787530252656204 1.2748395984575065 1.3940579571115947 1.6112975341939462
          2.0287589837188165 2.312535423847214 2.312535423847214 2.312535423847214 2.312535423847214 2.312535423847214
          2.312535423847214 2.312535423847214 2.312535423847214 1.9509610163315618 1.5501506010135788 1.2676886504616274
          1.1300215432845795 1.065008776044163 1.013665680320335 0.9653340007809463 0.9143708066531664 0.8602524863456982
          0.7971162466040707 0.7284057250053403 0.6524598614140287 0.5715285182040738 0.5094116145773011 0.5162735525695785
          0.6435290114976637 0.8425555141712143 1.0098566179835835 1.107443262547351 1.1667911559834714 1.2500658170378416
          1.4157955719962187 1.7963320083032315 2.312535423847214 2.312535423847214 2.312535423847214 2.312535423847214
          2.312535423847214 2.312535423847214 2.312535423847214 2.2404379812338324 1.7694441008944242 1.4103581298300922
          1.165371811170142 1.0393256554528505 0.9692689114497982 0.9114876182321127 0.8459616187674565 0.7725744219494123
          0.6950524307627737 0.6177898427636391 0.5350453635922616 0.45097516616821665 0.3740665255634868 0.34892769999109735
          0.420603877576948 0.589119808353934 0.7867121471809716 0.94369633726257 1.0349667637373718 1.0743120682972338
          1.120247660670617 1.2468091152324565 1.5829446210463518 2.1612490315525754 2.312535423847214 2.312535423847214
          2.312535423847214 2.312535423847214 2.312535423847214 2.312535423847214 2.1291254513970195 1.6592679998246616
          1.3270553390824447 1.1077381911009399 0.9767699073945806 0.8825990358491029 0.7968890727290266 0.701991837253843
          0.595080528974685 0.489857444051361 0.3903519652404411 0.2953344699947139 0.20782603243408979 0.1626641880264525
          0.20649503687671555 0.33773990750194877 0.5222489961463364 0.7170919615130771 0.8826040219675502 0.9818334053782644
          1.017900172867794 1.0452858021543645 1.1359801044050373 1.4233101486817434 1.9827722189305772 2.312535423847214
          2.312535423847214 2.312535423847214 2.312535423847214 2.312535423847214 2.312535423847214 2.0697805669684417
          1.6002478831858007 1.2940201620737004 1.0966857913460553 0.9571253017547932 0.8311607615574862 0.7035482350882538
          0.5596961315509624 0.40650245986195394 0.2661159953872333 0.14549345689910867 0.041206641999991904 -0.03787054331685649
          -0.0287780718792605 0.08676908114233908 0.255653768686336 0.4585921563579073 0.6704635287421933 0.852745019496642
          0.9631494000638617 1.002961998250032 1.025507583794076 1.0994131050902816 1.3396097715164605 1.8490418313387789
          2.312535423847214 2.312535423847214 2.312535423847214 2.312535423847214 2.312535423847214 2.312535423847214
          2.0526231688781444 1.597294995284094 1.3110792581497417 1.1341727088203364 0.9876072141244394 0.8319597179349485
          0.6528999762596781 0.45442161254598074 0.26700316195425183 0.101430704617728 -0.02938962379255775 -0.13955603427728533
          -0.19243270759127765 -0.11155462791979054 0.05863151931696279 0.2584660761902151 0.4762812612036292 0.6936275343030808
          0.8697356620592559 0.9743407318773134 1.0141143754246116 1.0406390050557923 1.1215909253258465 1.3387503055247245
          1.7847584587803826 2.312535423847214 2.312535423847214 2.312535423847214 2.312535423847214 2.312535423847214
          2.312535423847214 2.1060321062411966 1.654174771995202 1.362311542409357 1.200648639223067 1.0634927583480356
          0.8933868587145529 0.6770993833027278 0.44014307393102436 0.23265012294696444 0.07542454909015958 -0.05587721160126698
          -0.16298478952946316 -0.17319609492524218 -0.04748476097145409 0.14787163848272822 0.3690268737225155 0.5840655932958836
          0.7792133202564314 0.9294715905633131 1.012208823592209 1.044285287487911 1.0782779071082786 1.1827629305761005
          1.4022768507499404 1.7991843045197353 2.312535423847214 2.312535423847214 2.312535423847214 2.312535423847214
          2.312535423847214 2.312535423847214 2.229537741138939 1.759322052250895 1.4405335255767548 1.2699046942409835
          1.1406986260870102 0.9813525881663703 0.771870424908541 0.5293505834261337 0.3156521788051792 0.1553764802636612
          0.029937549945437056 -0.047966558923487036 -0.02850364796821176 0.09816466461294103 0.2988594230342664 0.5300673084697086
          0.7297406921835746 0.8895865417879832 1.008576736616898 1.0717697665003105 1.094543325114148 1.1385418831647602
          1.2739759318271404 1.5116544100462568 1.8836667722382736 2.312535423847214 2.312535423847214 2.312535423847214
          2.312535423847214 2.312535423847214 2.312535423847214 2.312535423847214 1.9101074370138085 1.548773561892699
          1.341792278690789 1.198384143424751 1.0560924027028677 0.8879662300619378 0.6892888840127991 0.4891941682045427
          0.32614373136234553 0.20035255469933475 0.1382732538237559 0.16739700939704577 0.2803997458315072 0.4666602079444653
          0.6843903781512626 0.8593765029654511 0.9887359315544448 1.0863610941528736 1.1417834953822077 1.1633542444403937
          1.2248298001524252 1.3939773680790104 1.6676157588686016 2.0504215721452366 2.312535423847214 2.312535423847214
          2.312535423847214 2.312535423847214 2.312535423847214 2.312535423847214 2.312535423847214 2.121173031815814
          1.691551692621092 1.4262021831510352 1.247849095233499 1.1019012857688748 0.977964174679796 0.8412001809659808
          0.6892374859059804 0.5481025077740095 0.42729662245220223 0.359359295699627 0.37530370777146027 0.4739007506685686
          0.6339992337326249 0.8111491818046027 0.9600454334962658 1.0759613278578077 1.1640576586734428 1.2184708377742663
          1.2522833246760663 1.3366441876896922 1.5486293793588821 1.867367241247138 2.274547167803756 2.312535423847214
          2.312535423847214 2.312535423847214 2.312535423847214 2.312535423847214 2.312535423847214 2.312535423847214
          2.312535423847214 1.8950584343939985 1.54919395664717 1.3141147447095805 1.141012392299364 1.0287167148916458
          0.9387777066586592 0.8470628121007593 0.7528266457196531 0.6606798153708348 0.5940502474373325 0.5922238847819052
          0.6651289047115573 0.781940768664108 0.9168003670027576 1.0508050004829796 1.1664278328387196 1.2505456861562851
          1.3078328071467786 1.3649815786426562 1.4833374058433884 1.7330772083796016 2.0919840238859417 2.312535423847214
          2.312535423847214 2.312535423847214 2.312535423847214 2.312535423847214 2.312535423847214 2.312535423847214
          2.312535423847214 2.312535423847214 2.1664683283541266 1.7583578925154355 1.4253694782293247 1.1989945713393826
          1.0715082851907882 1.0024983340546496 0.949038944541117 0.8938562394278494 0.8410371645537267 0.7973260619500859
          0.7912028772337807 0.8370898796522034 0.9144114084578843 1.0218920410791712 1.1484458798696955 1.258940881918343
          1.3377379969076535 1.4101170375098038 1.5034640146753409 1.6709297165893575 1.9518161691804115 2.312535423847214
          2.312535423847214 2.312535423847214 2.312535423847214 2.312535423847214 2.312535423847214 2.312535423847214
          2.312535423847214 2.312535423847214 2.312535423847214 2.312535423847214 2.0827572651849247 1.6514178537555817
          1.3226351736124162 1.1308257047380361 1.0456317636927617 1.0033807083494306 0.9664991708221267 0.9441018404110098
          0.931154350910752 0.9384398313568469 0.9769519171018738 1.0465402967094257 1.1420956796909183 1.2465290793293278
          1.340273349784694 1.4222526204412291 1.5236757102894454 1.6708876606231637 1.8906004260876592 2.205919126170921
          2.312535423847214 2.312535423847214 2.312535423847214 2.312535423847214 2.312535423847214 2.312535423847214
          2.312535423847214 2.312535423847214 2.312535423847214 2.312535423847214 2.312535423847214 2.312535423847214
          2.0020095680018506 1.5587738569688308 1.2462203990652607 1.0986671161903223 1.0453926961947502 1.0132876979267391
          1.003031762213966 1.0162921842436663 1.051792787172109 1.107839453957709 1.1846210757983162 1.2693676468813093
          1.3549372666329493 1.4412425382367617 1.5489611823129092 1.6937416527138525 1.8895400055915272 2.162142033781812
          2.312535423847214 2.312535423847214 2.312535423847214 2.312535423847214 2.312535423847214 2.312535423847214
          2.312535423847214 2.312535423847214 2.312535423847214 2.312535423847214 2.312535423847214 2.312535423847214
          2.312535423847214 2.312535423847214 1.9205331857470913 1.4866115408251794 1.2222550940648464 1.123001696776934
          1.0892381413859618 1.0907699724271853 1.1245071960286925 1.1782209836443032 1.2428455525210316 1.3189789519028317
          1.396862180940101 1.491623584955888 1.6185746500749054 1.7766277495894924 1.9619235668528208 2.194956375297616
          2.312535423847214 2.312535423847214 2.312535423847214 2.312535423847214 2.312535423847214 2.312535423847214
          2.312535423847214 2.312535423847214 2.312535423847214 2.312535423847214 2.312535423847214 2.312535423847214
          2.312535423847214 2.312535423847214 2.312535423847214 2.312535423847214 1.898841720765497 1.5278654270393643
          1.3256000586228782 1.2700724804727561 1.2742863518439445 1.300784546657401 1.3524749284146942 1.4166710898500792
          1.4946002773695901 1.583131973054379 1.7213115148977447 1.9008077285279594 2.098938872546547 2.312535423847214
          2.312535423847214 2.312535423847214 2.312535423847214 2.312535423847214 2.312535423847214 2.312535423847214
          2.312535423847214 2.312535423847214 2.312535423847214 2.312535423847214 2.312535423847214 2.312535423847214
          2.312535423847214 2.312535423847214 2.312535423847214 2.312535423847214 2.312535423847214 2.312535423847214
          2.0467562801867394 1.752468050490883 1.6160411345088173 1.5746413971044357 1.5729650034253881 1.6021708545096838
          1.6584639376033365 1.7427124019064995 1.8671428968649473 2.0486747751119405 2.2594714067283697 2.312535423847214
          2.312535423847214 2.312535423847214 2.312535423847214 2.312535423847214 2.312535423847214 2.312535423847214
          2.312535423847214 2.312535423847214 2.312535423847214 2.312535423847214 2.312535423847214 2.312535423847214
          2.312535423847214 2.312535423847214 2.312535423847214 2.312535423847214 2.312535423847214 2.312535423847214
          2.312535423847214 2.312535423847214 2.2936007299026833 2.0610855244618596 1.94250346450076 1.9137440482197328
          1.926231656250784 1.975187483852823 2.0726473924134066 2.220350531023142 2.312535423847214 2.312535423847214
          2.312535423847214 2.312535423847214 2.312535423847214 2.312535423847214 2.312535423847214 2.312535423847214
          2.312535423847214 2.312535423847214 2.312535423847214 2.312535423847214 2.312535423847214 2.312535423847214
          2.312535423847214 2.312535423847214 2.312535423847214 2.312535423847214 2.312535423847214 2.312535423847214
          2.312535423847214 2.312535423847214 2.312535423847214 2.312535423847214 2.312535423847214 2.312535423847214
          2.312535423847214 2.312535423847214 2.312535423847214 2.312535423847214 2.312535423847214 2.312535423847214
          2.312535423847214 2.312535423847214 2.312535423847214 2.312535423847214 2.312535423847214 2.312535423847214
          2.312535423847214 2.312535423847214 2.312535423847214 2.312535423847214 2.312535423847214 2.312535423847214
          2.312535423847214 2.312535423847214 2.312535423847214 2.312535423847214 2.312535423847214 2.312535423847214
          2.312535423847214 2.312535423847214 2.312535423847214 2.312535423847214 2.312535423847214 2.312535423847214
          2.312535423847214 2.312535423847214 2.312535423847214 2.312535423847214 2.312535423847214 2.312535423847214
          2.312535423847214 2.312535423847214 2.312535423847214 2.312535423847214 2.312535423847214 2.312535423847214
          2.312535423847214 2.312535423847214 2.312535423847214 2.312535423847214 2.312535423847214 2.312535423847214
          2.312535423847214 2.312535423847214 2.312535423847214 2.312535423847214 2.312535423847214 2.312535423847214
          2.312535423847214 2.312535423847214 2.312535423847214 2.312535423847214 2.312535423847214 2.312535423847214
          2.312535423847214 2.312535423847214 2.312535423847214 2.312535423847214 2.312535423847214 2.312535423847214
          2.312535423847214 2.312535423847214 2.312535423847214 2.312535423847214 2.312535423847214 2.312535423847214
          2.312535423847214 2.312535423847214 2.312535423847214 2.312535423847214 2.312535423847214 2.312535423847214
          2.312535423847214 
        </DataArray>
      </PointData>
      <CellData>
        <DataArray type="Float32" Name="averaged zvalue" NumberOfComponents="1" format="ascii" RangeMin="-0.1670424065808171" RangeMax="2.312535423847214">
          2.312535423847214 2.312535423847214 2.312535423847214 2.312535423847214 2.312535423847214 2.312535423847214
          2.312535423847214 2.312535423847214 2.312535423847214 2.312535423847214 2.312535423847214 2.312535423847214
          2.312535423847214 2.312535423847214 2.312535423847214 2.312535423847214 2.312535423847214 2.312535423847214
          2.312535423847214 2.312535423847214 2.312535423847214 2.312535423847214 2.312535423847214 2.312535423847214
          2.312535423847214 2.312535423847214 2.312535423847214 2.312535423847214 2.312535423847214 2.312535423847214
          2.312535423847214 2.312535423847214 2.312535423847214 2.312535423847214 2.312535423847214 2.312535423847214
          2.312535423847214 2.312535423847214 2.312535423847214 2.312535423847214 2.312535423847214 2.312535423847214
          2.312535423847214 2.312535423847214 2.312535423847214 2.312535423847214 2.312535423847214 2.312535423847214
          2.312535423847214 2.312535423847214 2.312535423847214 2.312535423847214 2.312535423847214 2.312535423847214
          2.312535423847214 2.312535423847214 2.312535423847214 2.312535423847214 2.312535423847214 2.312535423847214
          2.312535423847214 2.312535423847214 2.312535423847214 2.312535423847214 2.312535423847214 2.312535423847214
          2.312535423847214 2.312535423847214 2.312535423847214 2.312535423847214 2.312535423847214 2.312535423847214
          2.312535423847214 2.312535423847214 2.310507170571517 2.310507170571517 2.312535423847214 2.312535423847214
          2.312535423847214 2.312535423847214 2.312535423847214 2.312535423847214 2.312535423847214 2.312535423847214
          2.312535423847214 2.312535423847214 2.312535423847214 2.312535423847214 2.312535423847214 2.312535423847214
          2.312535423847214 2.312535423847214 2.312535423847214 2.312535423847214 2.312535423847214 2.312535423847214
          2.312535423847214 2.312535423847214 2.312535423847214 2.312535423847214 2.3006419277985546 2.2483089515798493
          2.1753784379873413 2.119447919907755 2.084566049896204 2.077933613265242 2.0914689948430865 2.114491233710143
          2.1509903435880044 2.2076141038543384 2.2772854920513503 2.312535423847214 2.312535423847214 2.312535423847214
          2.312535423847214 2.312535423847214 2.312535423847214 2.312535423847214 2.312535423847214 2.312535423847214
          2.312535423847214 2.312535423847214 2.312535423847214 2.312535423847214 2.312535423847214 2.312535423847214
          2.312535423847214 2.312535423847214 2.3027766734042414 2.2341652870800264 2.1168636601158597 1.9816647604266242
          1.8452967686237942 1.7445631672185429 1.6854224987094026 1.667657617596705 1.677581899597007 1.7082887784413767
          1.7693389444468641 1.8754765303070582 2.0219916470496098 2.1592820620913673 2.264361535062136 2.312535423847214
          2.312535423847214 2.312535423847214 2.312535423847214 2.312535423847214 2.312535423847214 2.312535423847214
          2.312535423847214 2.312535423847214 2.312535423847214 2.312535423847214 2.312535423847214 2.312535423847214
          2.312535423847214 2.260025210333546 2.135182167708046 1.9522262561787014 1.7576781516274054 1.6121670431380626
          1.5081201876810888 1.4390463813407113 1.3978549282626986 1.3761723385759341 1.3659204512881513 1.368332903740395
          1.4014075835254536 1.4862111555530804 1.6289050486946413 1.8227391158230715 2.038128771306065 2.2150198189780674
          2.29874293356802 2.312535423847214 2.312535423847214 2.312535423847214 2.312535423847214 2.312535423847214
          2.312535423847214 2.312535423847214 2.312535423847214 2.312535423847214 2.312535423847214 2.312535423847214
          2.225565877013718 2.0191134852379364 1.787229535763105 1.5859613698511024 1.4364133360483333 1.3381516456615765
          1.2782906297638075 1.2421069510321572 1.2174729720028938 1.1976347053471288 1.1793584019868755 1.1648016358536566
          1.1725383277967547 1.230640687391347 1.3493551278687077 1.5179972244753952 1.7252464157970493 1.9776215809796
          2.215094085635869 2.312535423847214 2.312535423847214 2.312535423847214 2.312535423847214 2.312535423847214
          2.312535423847214 2.312535423847214 2.312535423847214 2.312535423847214 2.312535423847214 2.221022550556103
          1.9586867643280828 1.6723583990297772 1.4742066600516428 1.3314617904983916 1.2352109777143032 1.1796252934557507
          1.1477593168118638 1.1251492434811554 1.1046384283735051 1.082953429570903 1.059343666884981 1.0372125028439698
          1.0333353966269085 1.078185131618699 1.1817451103232233 1.3272082573185733 1.5053007979417339 1.7322762140678845
          2.023245759965324 2.248555490427575 2.312535423847214 2.312535423847214 2.312535423847214 2.312535423847214
          2.312535423847214 2.312535423847214 2.312535423847214 2.312535423847214 2.2444585370690975 1.982962960245314
          1.6426142975989133 1.418278385069769 1.286934335422649 1.1943855646346881 1.1335880413726156 1.096577705834394
          1.068567943640381 1.0426065051235287 1.0151670350681221 0.9824354580504486 0.9452633986403735 0.9130987766871221
          0.9085695998365569 0.9635735833051695 1.0774823855638145 1.2168430298009412 1.3657773148223675 1.5452361399899393
          1.7934024884305435 2.1101618738828813 2.2968700290059756 2.312535423847214 2.312535423847214 2.312535423847214
          2.312535423847214 2.312535423847214 2.312535423847214 2.2872502088670763 2.0803836173544097 1.7113019905856515
          1.4165147893156331 1.2610567033558429 1.1759454226028203 1.1118936120312937 1.0659685291373768 1.029795357347138
          0.9930574391207375 0.9536513424897648 0.9103539432336336 0.8592900232643993 0.8035161747253035 0.7604950903224702
          0.768571054629892 0.8591753731500537 1.0040830497292514 1.1466688295366594 1.2690861404409286 1.3990537887394694
          1.5941144652830606 1.9278882248571039 2.2259259189738763 2.312535423847214 2.312535423847214 2.312535423847214
          2.312535423847214 2.312535423847214 2.312535423847214 2.196856606988163 1.8674706965452041 1.497553681841635
          1.2627166393912435 1.1485383103200395 1.0843300317872449 1.032087069341497 0.9862930386757527 0.9408906449243153
          0.8902345108868839 0.8331310448239041 0.7703277819425551 0.700379259938811 0.6320129087890034 0.5944961194979357
          0.6375404353832862 0.7767483826662092 0.950024861431427 1.0880865683669407 1.1819567605634873 1.2714386321476034
          1.4178042200849004 1.7130460245530532 2.112540459929119 2.312535423847214 2.312535423847214 2.312535423847214
          2.312535423847214 2.312535423847214 2.2945110631938683 2.0683446305767577 1.6702284620174142 1.34839229811886
          1.1506019150922997 1.0509062215578477 0.9898577465116023 0.9341122295252126 0.8745602120377454 0.8105625364277627
          0.7425527516190454 0.669589294491328 0.5917215290449618 0.5122575178374515 0.4509835895839897 0.44880418617873125
          0.5423815624995311 0.715479120300946 0.8957051541495848 1.023990745382719 1.095878312641357 1.152854175497291
          1.2582295412342834 1.5104703291445645 1.963265271187343 2.274713825773554 2.312535423847214 2.312535423847214
          2.312535423847214 2.312535423847214 2.2486585700813198 1.9495688833374842 1.5415313924079055 1.2526308677959046
          1.0723013912796282 0.9669908775365832 0.8900611595650101 0.8140825367456097 0.7289021017363491 0.638141206434558
          0.5482629207045537 0.459630410397764 0.3722952580473205 0.2988829780480614 0.27303836261443803 0.3284416304866774
          0.46742814739479177 0.6537932282985798 0.8325261169810422 0.960775132086439 1.0272531025701659 1.0644364259975023
          1.137080670615619 1.3472609973413971 1.787569005052812 2.192273024544395 2.312535423847214 2.312535423847214
          2.312535423847214 2.312535423847214 2.205994216514972 1.864605475343981 1.4701478460416517 1.206374870900785
          1.0345797978990923 0.9119137516389907 0.8035492763059674 0.6905313191555215 0.5658177394103611 0.4393891070688083
          0.32295471539453596 0.2180966335335639 0.1266241502779848 0.07596040131610632 0.10678755854156166 0.22166444855183481
          0.3935587071731321 0.5920991606898786 0.7807261329298657 0.9200829617265796 0.991461244139988 1.0229138892665666
          1.0765466488609396 1.2495782824233808 1.64868349261689 2.114221224490946 2.312535423847214 2.312535423847214
          2.312535423847214 2.312535423847214 2.1868686458852533 1.8299866535791203 1.4506605746733343 1.2089894800974583
          1.043897754011406 0.9019632488429168 0.7548921727100917 0.5926414888612187 0.42190584147828725 0.2602630804552918
          0.12091263327787803 0.0044386102073143766 -0.08216316079635688 -0.0926589876767963 0.0012669751650627083 0.16488011133396324
          0.36224831560952186 0.5747411201517026 0.771642936150293 0.9149927033742682 0.9886416264039546 1.020805740631128
          1.071787654816499 1.2248410268643284 1.5780400917900868 2.0647177844533973 2.312535423847214 2.312535423847214
          2.312535423847214 2.312535423847214 2.195931530703442 1.8525312605996593 1.481215141959599 1.2520530371506255
          1.0964803301289696 0.9441116372804941 0.7638364840529769 0.5561410115098527 0.34855449284455536 0.16912713465227597
          0.02289710457851572 -0.0969519148001433 -0.1670424065808171 -0.1311670478519411 0.011865942227111594 0.2084990269281054
          0.42195995110306084 0.6332969272647563 0.8180120267955202 0.9464392020230228 1.0112373045955112 1.0443291437691484
          1.1058176920165046 1.2613452530441531 1.5812424798936957 2.0522534027486365 2.312535423847214 2.312535423847214
          2.312535423847214 2.312535423847214 2.2401601737686407 1.9372666679065582 1.5540854730580522 1.3183496003625406
          1.168686179474774 1.0197327078289922 0.830927313773048 0.6046158663921067 0.37944898977732544 0.19477583277649113
          0.05121534192449771 -0.05922275252719502 -0.10316277283660104 -0.03775495981299175 0.12435274128962039 0.33645631092730466