<VTKFile type="PolyData" version="1.0" byte_order="LittleEndian" header_type="UInt64">
  <PolyData>
    <Piece NumberOfPoints="961" NumberOfVerts="0" NumberOfLines="0" NumberOfStrips="0" NumberOfPolys="900">
      <PointData>
        <DataArray type="Float32" Name="zvalue" NumberOfComponents="1" format="ascii" RangeMin="0.2320114161884588" RangeMax="2.312535423847214">
          2.312535423847214 2.312535423847214 2.312535423847214 2.312535423847214 2.312535423847214 2.312535423847214
          2.312535423847214 2.312535423847214 2.312535423847214 2.312535423847214 2.312535423847214 2.312535423847214
          2.312535423847214 2.312535423847214 2.312535423847214 2.312535423847214 2.312535423847214 2.312535423847214
          2.312535423847214 2.312535423847214 2.312535423847214 2.312535423847214 2.312535423847214 2.312535423847214
          2.312535423847214 2.312535423847214 2.312535423847214 2.312535423847214 2.312535423847214 2.312535423847214
          2.312535423847214 2.312535423847214 2.312535423847214 2.312535423847214 2.312535423847214 2.312535423847214
          2.312535423847214 2.312535423847214 2.312535423847214 2.312535423847214 2.312535423847214 2.312535423847214
          2.312535423847214 2.312535423847214 2.312535423847214 2.312535423847214 2.312535423847214 2.312535423847214
          2.312535423847214 2.312535423847214 2.312535423847214 2.312535423847214 2.312535423847214 2.312535423847214
          2.312535423847214 2.312535423847214 2.312535423847214 2.312535423847214 2.312535423847214 2.312535423847214
          2.312535423847214 2.312535423847214 2.312535423847214 2.312535423847214 2.312535423847214 2.312535423847214
          2.312535423847214 2.312535423847214 2.312535423847214 2.312535423847214 2.312535423847214 2.312535423847214
          2.312535423847214 2.312535423847214 2.312535423847214 2.312535423847214 2.312535423847214 2.312535423847214
          2.312535423847214 2.312535423847214 2.312535423847214 2.312535423847214 2.312535423847214 2.312535423847214
          2.312535423847214 2.312535423847214 2.312535423847214 2.312535423847214 2.312535423847214 2.312535423847214
          2.312535423847214 2.312535423847214 2.312535423847214 2.312535423847214 2.312535423847214 2.312535423847214
          2.312535423847214 2.312535423847214 2.312535423847214 2.312535423847214 2.312535423847214 2.312535423847214
          2.312535423847214 2.312535423847214 2.312535423847214 2.312535423847214 2.312535423847214 2.312535423847214
          2.312535423847214 2.312535423847214 2.312535423847214 2.312535423847214 2.312535423847214 2.312535423847214
          2.312535423847214 2.312535423847214 2.312535423847214 2.312535423847214 2.312535423847214 2.312535423847214
          2.312535423847214 2.312535423847214 2.312535423847214 2.312535423847214 2.312535423847214 2.312535423847214
          2.312535423847214 2.312535423847214 2.312535423847214 2.312535423847214 2.312535423847214 2.312535423847214
          2.312535423847214 2.312535423847214 2.312535423847214 2.312535423847214 2.312535423847214 2.312535423847214
          2.312535423847214 2.312535423847214 2.312535423847214 2.312535423847214 2.312535423847214 2.312535423847214
          2.312535423847214 2.312535423847214 2.312535423847214 2.312535423847214 2.312535423847214 2.312535423847214
          2.312535423847214 2.312535423847214 2.312535423847214 2.312535423847214 2.312535423847214 2.312535423847214
          2.312535423847214 2.312535423847214 2.312535423847214 2.312535423847214 2.312535423847214 2.312535423847214
          2.312535423847214 2.312535423847214 2.312535423847214 2.312535423847214 2.312535423847214 2.312535423847214
          2.21743334535179 2.1316829948879064 2.098162185795615 2.112768591037152 2.1832797864857545 2.312535423847214
          2.312535423847214 2.312535423847214 2.312535423847214 2.312535423847214 2.312535423847214 2.312535423847214
          2.312535423847214 2.312535423847214 2.312535423847214 2.312535423847214 2.312535423847214 2.312535423847214
          2.312535423847214 2.312535423847214 2.312535423847214 2.312535423847214 2.312535423847214 2.312535423847214
          2.312535423847214 2.312535423847214 2.312535423847214 2.312535423847214 2.312535423847214 2.168315403690791
          1.9591351747715375 1.8015018288592577 1.7113281432729281 1.6705825673233137 1.6742324498098553 1.7324506549299536
          1.8720360061147079 2.0885303882308333 2.312535423847214 2.312535423847214 2.312535423847214 2.312535423847214
          2.312535423847214 2.312535423847214 2.312535423847214 2.312535423847214 2.312535423847214 2.312535423847214
          2.312535423847214 2.312535423847214 2.312535423847214 2.312535423847214 2.312535423847214 2.312535423847214
          2.312535423847214 2.312535423847214 2.312535423847214 2.312535423847214 2.273870318420877 2.0270055807461054
          1.7928876038545427 1.59347372488455 1.4537647645529912 1.3717082942356742 1.3340589713037276 1.3296976718275777
          1.3685077538587944 1.4793460043151172 1.676804822645792 1.943155292966936 2.2467162182194147 2.312535423847214
          2.312535423847214 2.312535423847214 2.312535423847214 2.312535423847214 2.312535423847214 2.312535423847214
          2.312535423847214 2.312535423847214 2.312535423847214 2.312535423847214 2.312535423847214 2.312535423847214
          2.312535423847214 2.312535423847214 2.312535423847214 2.312535423847214 2.215659159575246 1.9259973109306328
          1.6753872244942465 1.4745948240798812 1.325681026130266 1.2259576384861974 1.1640580781479002 1.1320868901632057
          1.12772949529695 1.1522685415688327 1.2140336854912672 1.3489886820752313 1.578431039768278 1.8816409327047798
          2.2150214828077655 2.312535423847214 2.312535423847214 2.312535423847214 2.312535423847214 2.312535423847214
          2.312535423847214 2.312535423847214 2.312535423847214 2.312535423847214 2.312535423847214 2.312535423847214
          2.312535423847214 2.312535423847214 2.312535423847214 2.312535423847214 2.263253128828381 1.9188281742586615
          1.6281349237596396 1.4039267351833946 1.2576093604759677 1.1694235544304883 1.108442178498945 1.0582986403541297
          1.0206574714904364 1.0099692032752443 1.0304678337188862 1.0690923554666358 1.14111001057479 1.2990458641227831
          1.559932469282132 1.893139800739278 2.238120900311494 2.312535423847214 2.312535423847214 2.312535423847214
          2.312535423847214 2.312535423847214 2.312535423847214 2.312535423847214 2.312535423847214 2.312535423847214
          2.312535423847214 2.312535423847214 2.312535423847214 2.312535423847214 2.312535423847214 2.041971180410092
          1.6818121955093894 1.4084213136145123 1.2324094619431079 1.138777374966514 1.087360502994454 1.033662637292406
          0.9592264814886639 0.8911275537359374 0.8668456360787711 0.8952890655925385 0.9631530594913411 1.0287725625276432
          1.1239690958213502 1.3196624079110586 1.6349025870629186 2.0007922648053347 2.312535423847214 2.312535423847214
          2.312535423847214 2.312535423847214 2.312535423847214 2.312535423847214 2.312535423847214 2.312535423847214
          2.312535423847214 2.312535423847214 2.312535423847214 2.312535423847214 2.312535423847214 2.291770957792653
          1.8838731995714135 1.5229281319805148 1.268929343231174 1.133092272457813 1.07337406644762 1.0260787750411637
          0.9383464405924711 0.8225758432774568 0.7324769045749214 0.7009354611198686 0.7329072374004855 0.8407877353308536
          0.9463585758049364 1.0359983238885213 1.17830342768452 1.4609046841888014 1.8404236067506405 2.2449806291019065
          2.312535423847214 2.312535423847214 2.312535423847214 2.312535423847214 2.312535423847214 2.312535423847214
          2.312535423847214 2.312535423847214 2.312535423847214 2.312535423847214 2.312535423847214 2.312535423847214
          2.193774143242816 1.7815353094862691 1.4243554740590894 1.1816333926051679 1.0703885088215421 1.0186544925559156
          0.945896827984385 0.8180418710790965 0.6742663123209732 0.5726401273150339 0.5314525256110918 0.5677102238772643
          0.696423558047642 0.8593958755060541 0.9977171880529829 1.1302138874973342 1.3722397686527428 1.7445271442461592
          2.1736193667452666 2.312535423847214 2.312535423847214 2.312535423847214 2.312535423847214 2.312535423847214
          2.312535423847214 2.312535423847214 2.312535423847214 2.312535423847214 2.312535423847214 2.312535423847214
          2.312535423847214 2.1422677636432157 1.73079404725053 1.3769387684473455 1.1335318398862926 1.0174147593969842
          0.9428853815946161 0.8342927553401528 0.6794954421028285 0.5214957006130273 0.418983989642728 0.38090707009755825
          0.4503570465857679 0.6182788935353829 0.8130690671424132 0.9949493570533737 1.139483232673913 1.353274388908194
          1.6960997540467873 2.122624821731347 2.312535423847214 2.312535423847214 2.312535423847214 2.312535423847214
          2.312535423847214 2.312535423847214 2.312535423847214 2.312535423847214 2.312535423847214 2.312535423847214
          2.312535423847214 2.312535423847214 2.1199329654237933 1.7155597931482423 1.3602730902868259 1.100107799802938
          0.9527587053809883 0.8390541976449737 0.6992662692597374 0.5336275955380984 0.3757530631818798 0.2868654075898584
          0.29219405924236325 0.4673986561243038 0.660361776208384 0.8333529513643044 1.0279539999784926 1.1833563099831461
          1.3761537550511314 1.686924014743908 2.092449734013948 2.312535423847214 2.312535423847214 2.312535423847214
          2.312535423847214 2.312535423847214 2.312535423847214 2.312535423847214 2.312535423847214 2.312535423847214
          2.312535423847214 2.312535423847214 2.312535423847214 2.1285626091432364 1.7183752797042222 1.3496441507180041
          1.0606814367166697 0.8624226464807841 0.7158809193644927 0.5663612973272748 0.4077465938356439 0.2713699698198257
          0.2320114161884588 0.37621252221206547 0.6067559756037624 0.7692760431756358 0.9004289661627395 1.0744480208140192
          1.239975407926541 1.4262433848071774 1.713009597841737 2.098370096125162 2.312535423847214 2.312535423847214
          2.312535423847214 2.312535423847214 2.312535423847214 2.312535423847214 2.312535423847214 2.312535423847214
          2.312535423847214 2.312535423847214 2.312535423847214 2.312535423847214 2.1610255718916016 1.7312810970258432
          1.341692506756721 1.0250757012745584 0.7815140699434148 0.6104917070314648 0.4674205005983986 0.338663755667251
          0.27158482810305673 0.36102149643711756 0.6034805580436766 0.7925091072878788 0.8820183728167664 0.9628248503939436
          1.1142904622209016 1.2918559641358218 1.4868670147800804 1.7735889342177424 2.1445792308717726 2.312535423847214
          2.312535423847214 2.312535423847214 2.312535423847214 2.312535423847214 2.312535423847214 2.312535423847214
          2.312535423847214 2.312535423847214 2.312535423847214 2.312535423847214 2.312535423847214 2.2070875097818
          1.7622082154975 1.3494190630308136 1.0137144048823432 0.7543544020485887 0.5763643656963648 0.4488632439275021
          0.3954085312877088 0.4235092369560465 0.600211647758295 0.8031876680731549 0.9132112609751831 0.9522047111920177
          0.9996557309706737 1.1441419751246107 1.3282758332139524 1.5509680332073614 1.8606716756710333 2.222720686481204
          2.312535423847214 2.312535423847214 2.312535423847214 2.312535423847214 2.312535423847214 2.312535423847214
          2.312535423847214 2.312535423847214 2.312535423847214 2.312535423847214 2.312535423847214 2.312535423847214
          2.2730292610819522 1.8194181082691414 1.3897529754915694 1.047054637629393 0.7957672801144106 0.6191327573827374
          0.5318723448544712 0.5181318925734072 0.5798393056290563 0.7432233195286202 0.892271484050773 0.9547251459205105
          0.9674660819743983 1.0160752169463416 1.169507781768148 1.3710688532821635 1.6294003570895883 1.9612269136461564
          2.312535423847214 2.312535423847214 2.312535423847214 2.312535423847214 2.312535423847214 2.312535423847214
          2.312535423847214 2.312535423847214 2.312535423847214 2.312535423847214 2.312535423847214 2.312535423847214
          2.312535423847214 2.312535423847214 1.9021757580714989 1.4645704541052895 1.1202418805217504 0.8841485235274694
          0.7144951656838785 0.6122095800743248 0.5829329792893352 0.6305763873974002 0.7445201587862806 0.8638382708627599
          0.9251614570092606 0.9458029055765335 1.0351342241990293 1.2209431178709362 1.4525129792409375 1.7479302253979
          2.0942726353408703 2.312535423847214 2.312535423847214 2.312535423847214 2.312535423847214 2.312535423847214
          2.312535423847214 2.312535423847214 2.312535423847214 2.312535423847214 2.312535423847214 2.312535423847214
          2.312535423847214 2.312535423847214 2.312535423847214 2.0317580150793693 1.59103608260645 1.2276558795120531
          0.9816347681312362 0.8203664166583808 0.7085189197359034 0.6463511144059595 0.6414475022115912 0.6905838072869427
          0.7789829283756861 0.8606958861224884 0.9444352565649224 1.1153858823819016 1.3424545930964336 1.6052206493945105
          1.919897483304697 2.2740843094238596 2.312535423847214 2.312535423847214 2.312535423847214 2.312535423847214
          2.312535423847214 2.312535423847214 2.312535423847214 2.312535423847214 2.312535423847214 2.312535423847214
          2.312535423847214 2.312535423847214 2.312535423847214 2.312535423847214 2.2249656638362945 1.7844884713297096
          1.3968337930236778 1.1034619802934222 0.922602886772291 0.8192618641490077 0.7561739728724907 0.7190186863934405
          0.7153881680171701 0.7591884479198404 0.8741088556842179 1.0631900485030663 1.3142042010770494 1.5648962999129068
          1.8402250437192134 2.1558985574431575 2.312535423847214 2.312535423847214 2.312535423847214 2.312535423847214
          2.312535423847214 2.312535423847214 2.312535423847214 2.312535423847214 2.312535423847214 2.312535423847214
          2.312535423847214 2.312535423847214 2.312535423847214 2.312535423847214 2.312535423847214 2.312535423847214
          2.061389287272265 1.675540200008895 1.3266891844498652 1.0680305850627512 0.9310192456585872 0.8666031039549836
          0.8432035681221315 0.8535799407871192 0.9302129497584997 1.1193296839507083 1.3719844671454857 1.630960036536004
          1.885527265485605 2.1522425422565625 2.312535423847214 2.312535423847214 2.312535423847214 2.312535423847214
          2.312535423847214 2.312535423847214 2.312535423847214 2.312535423847214 2.312535423847214 2.312535423847214
          2.312535423847214 2.312535423847214 2.312535423847214 2.312535423847214 2.312535423847214 2.312535423847214
          2.312535423847214 2.312535423847214 2.068970032172819 1.7078528089346052 1.3826301357440423 1.1686845141189648
          1.0638454652550169 1.0537474873161345 1.1317376127112022 1.3195476440269707 1.5591614103477025 1.7851874517995572
          2.016901389090937 2.2660078868456153 2.312535423847214 2.312535423847214 2.312535423847214 2.312535423847214
          2.312535423847214 2.312535423847214 2.312535423847214 2.312535423847214 2.312535423847214 2.312535423847214
          2.312535423847214 2.312535423847214 2.312535423847214 2.312535423847214 2.312535423847214 2.312535423847214
          2.312535423847214 2.312535423847214 2.312535423847214 2.312535423847214 2.154204251372789 1.8296986536278397
          1.614641974127603 1.512607967776275 1.511461626350682 1.6203756988829632 1.8137291696716353 2.019669059059526
          2.21658141916057 2.312535423847214 2.312535423847214 2.312535423847214 2.312535423847214 2.312535423847214
          2.312535423847214 2.312535423847214 2.312535423847214 2.312535423847214 2.312535423847214 2.312535423847214
          2.312535423847214 2.312535423847214 2.312535423847214 2.312535423847214 2.312535423847214 2.312535423847214
          2.312535423847214 2.312535423847214 2.312535423847214 2.312535423847214 2.312535423847214 2.312535423847214
          2.312535423847214 2.1526251807018424 2.0885513523398176 2.093177859552915 2.174803705093372 2.3121465035202826
          2.312535423847214 2.312535423847214 2.312535423847214 2.312535423847214 2.312535423847214 2.312535423847214
          2.312535423847214 2.312535423847214 2.312535423847214 2.312535423847214 2.312535423847214 2.312535423847214
          2.312535423847214 2.312535423847214 2.312535423847214 2.312535423847214 2.312535423847214 2.312535423847214
          2.312535423847214 2.312535423847214 2.312535423847214 2.312535423847214 2.312535423847214 2.312535423847214
          2.312535423847214 2.312535423847214 2.312535423847214 2.312535423847214 2.312535423847214 2.312535423847214
          2.312535423847214 2.312535423847214 2.312535423847214 2.312535423847214 2.312535423847214 2.312535423847214
          2.312535423847214 2.312535423847214 2.312535423847214 2.312535423847214 2.312535423847214 2.312535423847214
          2.312535423847214 2.312535423847214 2.312535423847214 2.312535423847214 2.312535423847214 2.312535423847214
          2.312535423847214 2.312535423847214 2.312535423847214 2.312535423847214 2.312535423847214 2.312535423847214
          2.312535423847214 2.312535423847214 2.312535423847214 2.312535423847214 2.312535423847214 2.312535423847214
          2.312535423847214 2.312535423847214 2.312535423847214 2.312535423847214 2.312535423847214 2.312535423847214
          2.312535423847214 2.312535423847214 2.312535423847214 2.312535423847214 2.312535423847214 2.312535423847214
          2.312535423847214 2.312535423847214 2.312535423847214 2.312535423847214 2.312535423847214 2.312535423847214
          2.312535423847214 2.312535423847214 2.312535423847214 2.312535423847214 2.312535423847214 2.312535423847214
          2.312535423847214 2.312535423847214 2.312535423847214 2.312535423847214 2.312535423847214 2.312535423847214
          2.312535423847214 2.312535423847214 2.312535423847214 2.312535423847214 2.312535423847214 2.312535423847214
          2.312535423847214 2.312535423847214 2.312535423847214 2.312535423847214 2.312535423847214 2.312535423847214
          2.312535423847214 2.312535423847214 2.312535423847214 2.312535423847214 2.312535423847214 2.312535423847214
          2.312535423847214 2.312535423847214 2.312535423847214 2.312535423847214 2.312535423847214 2.312535423847214
          2.312535423847214 2.312535423847214 2.312535423847214 2.312535423847214 2.312535423847214 2.312535423847214
          2.312535423847214 2.312535423847214 2.312535423847214 2.312535423847214 2.312535423847214 2.312535423847214
          2.312535423847214 2.312535423847214 2.312535423847214 2.312535423847214 2.312535423847214 2.312535423847214
          2.312535423847214 2.312535423847214 2.312535423847214 2.312535423847214 2.312535423847214 2.312535423847214
          2.312535423847214 2.312535423847214 2.312535423847214 2.312535423847214 2.312535423847214 2.312535423847214
          2.312535423847214 2.312535423847214 2.312535423847214 2.312535423847214 2.312535423847214 2.312535423847214
          2.312535423847214 2.312535423847214 2.312535423847214 2.312535423847214 2.312535423847214 2.312535423847214
          2.312535423847214 2.312535423847214 2.312535423847214 2.312535423847214 2.312535423847214 2.312535423847214
          2.312535423847214 2.312535423847214 2.312535423847214 2.312535423847214 2.312535423847214 2.312535423847214
          2.312535423847214 
        </DataArray>
      </PointData>
      <CellData>
        <DataArray type="Float32" Name="averaged zvalue" NumberOfComponents="1" format="ascii" RangeMin="0.2839969276371147" RangeMax="2.312535423847214">
          2.312535423847214 2.312535423847214 2.312535423847214 2.312535423847214 2.312535423847214 2.312535423847214
          2.312535423847214 2.312535423847214 2.312535423847214 2.312535423847214 2.312535423847214 2.312535423847214
          2.312535423847214 2.312535423847214 2.312535423847214 2.312535423847214 2.312535423847214 2.312535423847214
          2.312535423847214 2.312535423847214 2.312535423847214 2.312535423847214 2.312535423847214 2.312535423847214
          2.312535423847214 2.312535423847214 2.312535423847214 2.312535423847214 2.312535423847214 2.312535423847214
          2.312535423847214 2.312535423847214 2.312535423847214 2.312535423847214 2.312535423847214 2.312535423847214
          2.312535423847214 2.312535423847214 2.312535423847214 2.312535423847214 2.312535423847214 2.312535423847214
          2.312535423847214 2.312535423847214 2.312535423847214 2.312535423847214 2.312535423847214 2.312535423847214
          2.312535423847214 2.312535423847214 2.312535423847214 2.312535423847214 2.312535423847214 2.312535423847214
          2.312535423847214 2.312535423847214 2.312535423847214 2.312535423847214 2.312535423847214 2.312535423847214
          2.312535423847214 2.312535423847214 2.312535423847214 2.312535423847214 2.312535423847214 2.312535423847214
          2.312535423847214 2.312535423847214 2.312535423847214 2.312535423847214 2.312535423847214 2.312535423847214
          2.312535423847214 2.312535423847214 2.312535423847214 2.312535423847214 2.312535423847214 2.312535423847214
          2.312535423847214 2.312535423847214 2.312535423847214 2.312535423847214 2.312535423847214 2.312535423847214
          2.312535423847214 2.312535423847214 2.312535423847214 2.312535423847214 2.312535423847214 2.312535423847214
          2.312535423847214 2.312535423847214 2.312535423847214 2.312535423847214 2.312535423847214 2.312535423847214
          2.312535423847214 2.312535423847214 2.312535423847214 2.312535423847214 2.312535423847214 2.312535423847214
          2.312535423847214 2.312535423847214 2.312535423847214 2.312535423847214 2.312535423847214 2.312535423847214
          2.312535423847214 2.312535423847214 2.312535423847214 2.312535423847214 2.312535423847214 2.312535423847214
          2.312535423847214 2.312535423847214 2.312535423847214 2.312535423847214 2.312535423847214 2.312535423847214
          2.312535423847214 2.312535423847214 2.312535423847214 2.312535423847214 2.312535423847214 2.312535423847214
          2.312535423847214 2.312535423847214 2.312535423847214 2.312535423847214 2.312535423847214 2.312535423847214
          2.2887599042233577 2.243546796983531 2.2137290070944875 2.209000406131799 2.230279806304334 2.2802215145068487
          2.312535423847214 2.312535423847214 2.312535423847214 2.312535423847214 2.312535423847214 2.312535423847214
          2.312535423847214 2.312535423847214 2.312535423847214 2.312535423847214 2.312535423847214 2.312535423847214
          2.312535423847214 2.312535423847214 2.312535423847214 2.312535423847214 2.312535423847214 2.312535423847214
          2.312535423847214 2.312535423847214 2.312535423847214 2.312535423847214 2.276480418808108 2.188130356539189
          2.07265144320745 1.9654865780929707 1.9029389728199408 1.8889364484914841 1.9256828705656788 2.0250754678444074
          2.146409310509992 2.2565341649431185 2.312535423847214 2.312535423847214 2.312535423847214 2.312535423847214
          2.312535423847214 2.312535423847214 2.312535423847214 2.312535423847214 2.312535423847214 2.312535423847214
          2.312535423847214 2.312535423847214 2.312535423847214 2.312535423847214 2.312535423847214 2.312535423847214
          2.312535423847214 2.312535423847214 2.3028691474906298 2.2314866867153524 2.075186003034663 1.8784529768003553
          1.7019688732670841 1.5845757577302129 1.521919494033911 1.5021429150661187 1.5262221326065453 1.613085104804643
          1.7791793053266125 2.005256481922694 2.2037355897201945 2.296080622440264 2.312535423847214 2.312535423847214
          2.312535423847214 2.312535423847214 2.312535423847214 2.312535423847214 2.312535423847214 2.312535423847214
          2.312535423847214 2.312535423847214 2.312535423847214 2.312535423847214 2.312535423847214 2.312535423847214
          2.312535423847214 2.288316357779222 2.182015553193492 1.9755651086479653 1.7424688082936939 1.5466592947373101
          1.3997192885135012 1.3038721938556908 1.250478058462627 1.2308932571478652 1.2445508656380389 1.303538996308503
          1.4297932986318518 1.6368449593640593 1.912485870914852 2.1639785143947936 2.2881569385873517 2.312535423847214
          2.312535423847214 2.312535423847214 2.312535423847214 2.312535423847214 2.312535423847214 2.312535423847214
          2.312535423847214 2.312535423847214 2.312535423847214 2.312535423847214 2.312535423847214 2.312535423847214
          2.3002148500925057 2.177568971627376 1.922154892131045 1.6583615485919783 1.4528795360583724 1.3068271912791507
          1.2073760993864742 1.1391891338717932 1.0937752700389178 1.0726107650564591 1.0801087684649784 1.1164656040614054
          1.1933061834019811 1.3418938991352705 1.5797625764694934 1.887433671383489 2.164704401926438 2.293931792963284
          2.312535423847214 2.312535423847214 2.312535423847214 2.312535423847214 2.312535423847214 2.312535423847214
          2.312535423847214 2.312535423847214 2.312535423847214 2.312535423847214 2.312535423847214 2.312535423847214
          2.2325737892332254 1.9764661697516308 1.6592991517855507 1.4182231086251638 1.2581807331422459 1.163292698216856
          1.0997222183040734 1.0399074844085363 0.9823275367672919 0.9471499661450973 0.95064293466636 0.9895005785673503
          1.0505319970151026 1.1482243832616414 1.3256524592843308 1.6019093162488467 1.9417388882297564 2.215996003202814
          2.312535423847214 2.312535423847214 2.312535423847214 2.312535423847214 2.312535423847214 2.312535423847214
          2.312535423847214 2.312535423847214 2.312535423847214 2.312535423847214 2.312535423847214 2.3073443073335733
          2.1325376904053432 1.7826461768678523 1.4705227460838977 1.2607130978116519 1.1444132939537637 1.0813976798624378
          1.0213620889801236 0.9384528506627494 0.8513516957692449 0.7978463888773746 0.7989943500479159 0.8580342744538048
          0.9447679832886935 1.0337746395106129 1.1644833138263624 1.3984432767118244 1.7342557857019236 2.099682981126274
          2.295646725160887 2.312535423847214 2.312535423847214 2.312535423847214 2.312535423847214 2.312535423847214
          2.312535423847214 2.312535423847214 2.312535423847214 2.312535423847214 2.312535423847214 2.2776539871824744
          2.037738402523288 1.6531730287743216 1.3494615854689864 1.1635108792789244 1.0738773350707227 1.0160010405072712
          0.932090978674279 0.8133076168174994 0.7004897968720963 0.634376254655229 0.6332513620021776 0.7094571886640614
          0.8357414361723715 0.9598674908131237 1.0855582067808394 1.2854154420058497 1.6045238009595861 2.0008876867109935
          2.2609177108854004 2.312535423847214 2.312535423847214 2.312535423847214 2.312535423847214 2.312535423847214
          2.312535423847214 2.312535423847214 2.312535423847214 2.312535423847214 2.312535423847214 2.2402781886451146
          1.9620928159057078 1.5784058998108086 1.2791148687494738 1.1007421251774967 1.0123357855922643 0.9354323643687674
          0.8194317241266158 0.6733248315289814 0.5468465324729407 0.475995928166603 0.48260671654292053 0.5831924305115144
          0.7467918485578731 0.916282871938706 1.065590916319401 1.2488028194330458 1.5415352639634707 1.93421777169239
          2.2303287590427603 2.312535423847214 2.312535423847214 2.312535423847214 2.312535423847214 2.312535423847214
          2.312535423847214 2.312535423847214 2.312535423847214 2.312535423847214 2.312535423847214 2.2218178941903592
          1.9271386423664454 1.5458914247832358 1.2427128746058504 1.0509532761168008 0.9380282610043905 0.82887465095987
          0.6866705155602043 0.5275929503589585 0.40077454025687337 0.344737631643127 0.3977142080124983 0.5490990931134596
          0.7312656720626212 0.917331343884646 1.0864357249222314 1.263066921654096 1.5281129781875051 1.8995245811339974
          2.2100363508599306 2.312535423847214 2.312535423847214 2.312535423847214 2.312535423847214 2.312535423847214
          2.312535423847214 2.312535423847214 2.312535423847214 2.312535423847214 2.312535423847214 2.218391605565364
          1.9206076618548735 1.5359630784643237 1.2176766193811095 0.9939926470953451 0.8425291172178098 0.7051406708991197
          0.5517504389901886 0.39712430559386197 0.2914999641950057 0.2968208513081865 0.43564030329562375 0.6259481127780215
          0.7908549342277659 0.9590459845798889 1.1314334346755497 1.306432214441999 1.5505826881109885 1.897688360681189
          2.2039726694583845 2.312535423847214 2.312535423847214 2.312535423847214 2.312535423847214 2.312535423847214
          2.312535423847214 2.312535423847214 2.312535423847214 2.312535423847214 2.312535423847214 2.228664757182316
          1.9348111394412257 1.5352482585511977 1.1942734488664883 0.9324234636038568 0.7425773357050391 0.5900386060804077
          0.44504803685714206 0.32234128685644436 0.2839969276371147 0.3931814982203296 0.5947395407868459 0.7626398747210108
          0.8786370581372713 1.0129980748979008 1.1801424637743207 1.3612354429124052 1.5999272329116843 1.9323869647641037
          2.217005043672841 2.312535423847214 2.312535423847214 2.312535423847214 2.312535423847214 2.312535423847214
          2.312535423847214 2.312535423847214 2.312535423847214 2.312535423847214 2.312535423847214 2.2482959823419573
          1.965400598549186 1.5461502205777196 1.182475418986109 0.8936646445372264 0.6806811361799583 0.5257849543134326
          0.41258900787021513 0.3572915880035158 0.41408180231362895 0.5919753425780611 0.7780971485949734 0.8849858630679616
          0.9491759163433504 1.0552282546775325 1.2196410586738216 1.414491711334304 1.6680239144690545 2.0003901318104385
          2.248092691261851 2.312535423847214 2.312535423847214 2.312535423847214 2.312535423847214 2.312535423847214