<VTKFile type="PolyData" version="1.0" byte_order="LittleEndian" header_type="UInt64">
  <PolyData>
    <Piece NumberOfPoints="961" NumberOfVerts="0" NumberOfLines="0" NumberOfStrips="0" NumberOfPolys="900">
      <PointData>
        <DataArray type="Float32" Name="zvalue" NumberOfComponents="1" format="ascii" RangeMin="0.4821088635094347" RangeMax="2.312535423847214">
          2.312535423847214 2.312535423847214 2.312535423847214 2.312535423847214 2.312535423847214 2.312535423847214
          2.312535423847214 2.312535423847214 2.312535423847214 2.312535423847214 2.312535423847214 2.312535423847214
          2.312535423847214 2.312535423847214 2.312535423847214 2.312535423847214 2.312535423847214 2.312535423847214
          2.312535423847214 2.312535423847214 2.312535423847214 2.312535423847214 2.312535423847214 2.312535423847214
          2.312535423847214 2.312535423847214 2.312535423847214 2.312535423847214 2.312535423847214 2.312535423847214
          2.312535423847214 2.312535423847214 2.312535423847214 2.312535423847214 2.312535423847214 2.312535423847214
          2.312535423847214 2.312535423847214 2.312535423847214 2.312535423847214 2.312535423847214 2.312535423847214
          2.312535423847214 2.312535423847214 2.312535423847214 2.312535423847214 2.312535423847214 2.312535423847214
          2.312535423847214 2.312535423847214 2.312535423847214 2.312535423847214 2.312535423847214 2.312535423847214
          2.312535423847214 2.312535423847214 2.312535423847214 2.312535423847214 2.312535423847214 2.312535423847214
          2.312535423847214 2.312535423847214 2.312535423847214 2.312535423847214 2.312535423847214 2.312535423847214
          2.312535423847214 2.312535423847214 2.312535423847214 2.312535423847214 2.312535423847214 2.312535423847214
          2.312535423847214 2.312535423847214 2.312535423847214 2.312535423847214 2.312535423847214 2.312535423847214
          2.312535423847214 2.312535423847214 2.312535423847214 2.312535423847214 2.312535423847214 2.312535423847214
          2.312535423847214 2.312535423847214 2.312535423847214 2.312535423847214 2.312535423847214 2.312535423847214
          2.312535423847214 2.312535423847214 2.312535423847214 2.312535423847214 2.312535423847214 2.312535423847214
          2.312535423847214 2.312535423847214 2.312535423847214 2.312535423847214 2.312535423847214 2.312535423847214
          2.312535423847214 2.312535423847214 2.312535423847214 2.312535423847214 2.312535423847214 2.312535423847214
          2.312535423847214 2.312535423847214 2.312535423847214 2.312535423847214 2.312535423847214 2.312535423847214
          2.312535423847214 2.312535423847214 2.312535423847214 2.312535423847214 2.312535423847214 2.312535423847214
          2.312535423847214 2.312535423847214 2.312535423847214 2.312535423847214 2.312535423847214 2.312535423847214
          2.312535423847214 2.312535423847214 2.312535423847214 2.312535423847214 2.312535423847214 2.312535423847214
          2.312535423847214 2.312535423847214 2.312535423847214 2.312535423847214 2.312535423847214 2.312535423847214
          2.312535423847214 2.312535423847214 2.312535423847214 2.312535423847214 2.312535423847214 2.312535423847214
          2.312535423847214 2.312535423847214 2.312535423847214 2.312535423847214 2.312535423847214 2.312535423847214
          2.312535423847214 2.312535423847214 2.312535423847214 2.312535423847214 2.312535423847214 2.312535423847214
          2.312535423847214 2.312535423847214 2.312535423847214 2.312535423847214 2.312535423847214 2.312535423847214
          2.312535423847214 2.312535423847214 2.312535423847214 2.312535423847214 2.269828027955639 2.1359407851036507
          2.0934073153345927 2.090602676490118 2.0937917062182976 2.100753994486513 2.1285637695164104 2.202676996771436
          2.312535423847214 2.312535423847214 2.312535423847214 2.312535423847214 2.312535423847214 2.312535423847214
          2.312535423847214 2.312535423847214 2.312535423847214 2.312535423847214 2.312535423847214 2.312535423847214
          2.312535423847214 2.312535423847214 2.312535423847214 2.312535423847214 2.312535423847214 2.312535423847214
          2.312535423847214 2.312535423847214 2.312535423847214 2.312535423847214 2.0063284478882575 1.7990056975376412
          1.7079219155186713 1.68336954575526 1.683760150157578 1.6861425990544228 1.6903330260123652 1.7104367434195986
          1.7698806046376032 1.8928582095757767 2.089377294995498 2.312535423847214 2.312535423847214 2.312535423847214
          2.312535423847214 2.312535423847214 2.312535423847214 2.312535423847214 2.312535423847214 2.312535423847214
          2.312535423847214 2.312535423847214 2.312535423847214 2.312535423847214 2.312535423847214 2.312535423847214
          2.312535423847214 2.312535423847214 2.312535423847214 2.2763071973073736 1.9031146903362681 1.6449446389687854
          1.516559258768079 1.45231696138146 1.4260279421218582 1.4181033729146104 1.4054975744655172 1.39113709629745
          1.3967165053484396 1.4402077709827803 1.5308275440402441 1.6895524191939328 1.9384304960975807 2.25206181745701
          2.312535423847214 2.312535423847214 2.312535423847214 2.312535423847214 2.312535423847214 2.312535423847214
          2.312535423847214 2.312535423847214 2.312535423847214 2.312535423847214 2.312535423847214 2.312535423847214
          2.312535423847214 2.312535423847214 2.312535423847214 2.2950901816529874 1.8779760048658272 1.5696575805286264
          1.4164526721778525 1.3525100211841588 1.3190947731857332 1.300603398703446 1.2818264302144031 1.2573572668423691
          1.2270677027635408 1.2064215063440598 1.2177497567371873 1.2710525818783742 1.3751363525832203 1.5659771605932953
          1.8544270530639226 2.19207433688842 2.312535423847214 2.312535423847214 2.312535423847214 2.312535423847214
          2.312535423847214 2.312535423847214 2.312535423847214 2.312535423847214 2.312535423847214 2.312535423847214
          2.312535423847214 2.312535423847214 2.312535423847214 2.312535423847214 1.9269115209443997 1.5514579591895015
          1.3561126158814623 1.2950853306927677 1.2828983028241494 1.2801257585972283 1.2792250487087644 1.267650122758953
          1.2422447675634793 1.2066080222481979 1.170308640298309 1.146805894486295 1.1483588507538387 1.1968668248096614
          1.3129916020949264 1.5324036465834165 1.8546603562865263 2.231564407593251 2.312535423847214 2.312535423847214
          2.312535423847214 2.312535423847214 2.312535423847214 2.312535423847214 2.312535423847214 2.312535423847214
          2.312535423847214 2.312535423847214 2.312535423847214 2.312535423847214 2.0724008447641835 1.6330386860926118
          1.3532712517467864 1.2591899054360713 1.2537058516088522 1.2702681445043777 1.2879858976456482 1.2968691044583947
          1.2826303824890137 1.2474141747686671 1.2035288153965773 1.1728074714887804 1.1519006987078746 1.139641668909022
          1.1532518631065296 1.2018638794925682 1.3352584509838443 1.5991751314810638 1.9809208124956807 2.312535423847214
          2.312535423847214 2.312535423847214 2.312535423847214 2.312535423847214 2.312535423847214 2.312535423847214
          2.312535423847214 2.312535423847214 2.312535423847214 2.312535423847214 2.287513440293648 1.8220120915556342
          1.4462216530304366 1.2569657727782655 1.2154928079623348 1.2346460113247504 1.2613626703941014 1.2755515908186292
          1.2677144751813738 1.2291188663758705 1.1676022272419602 1.1077058294395272 1.0942346344002456 1.116615558551212
          1.147806733253909 1.1706470255529835 1.1895376940235443 1.2414916205705162 1.4316480038353037 1.8027466862464792
          2.2816004694540295 2.312535423847214 2.312535423847214 2.312535423847214 2.312535423847214 2.312535423847214
          2.312535423847214 2.312535423847214 2.312535423847214 2.312535423847214 2.312535423847214 2.084753924204928
          1.648685758720768 1.338108787012437 1.2027006478216304 1.1752833156608313 1.193353306286222 1.207081411124513
          1.195092136617267 1.1381832336181064 1.0482007727473237 0.9512399173088164 0.8975735853949406 0.9255972462956539
          1.0237588523643428 1.1368580102308647 1.2027036874556791 1.211030932961793 1.2133207199145102 1.336910275558862
          1.6912091641888678 2.1769503969920163 2.312535423847214 2.312535423847214 2.312535423847214 2.312535423847214
          2.312535423847214 2.312535423847214 2.312535423847214 2.312535423847214 2.312535423847214 2.312535423847214
          1.9378523792251678 1.5332866202975561 1.265796170467253 1.1483751891389011 1.1151416474020255 1.111987571949804
          1.0966470928166832 1.0381084939897882 0.9255443528233703 0.7942816432012708 0.6963815753418731 0.6799952008101477
          0.7604386616423657 0.9269650063893385 1.121602770357717 1.2306278307786007 1.236840015255858 1.2133126494297
          1.2894139580616324 1.6243379997720555 2.114015393511726 2.312535423847214 2.312535423847214 2.312535423847214
          2.312535423847214 2.312535423847214 2.312535423847214 2.312535423847214 2.312535423847214 2.312535423847214
          2.2968576506876803 1.8303840584228002 1.447983885983679 1.2069978366490428 1.0938521529943412 1.039741826253886
          1.0075904427575955 0.9583755953388591 0.8606734020684473 0.7244639140905593 0.6005902888575144 0.533406670115344
          0.5568147087791391 0.6677170291040309 0.8918029122618552 1.1334543745458316 1.2491443201386978 1.2492368056193899
          1.214178047742409 1.270558630445303 1.594463165347846 2.0809433912823465 2.312535423847214 2.312535423847214
          2.312535423847214 2.312535423847214 2.312535423847214 2.312535423847214 2.312535423847214 2.312535423847214
          2.312535423847214 2.2082427288999193 1.738234887448891 1.3706812845594762 1.157229507114915 1.0506630174158809
          0.9779047958872196 0.9182451338046921 0.83940135292548 0.7299920007793036 0.6091347101247059 0.512502692651643
          0.4821088635094347 0.5417239245819679 0.6962015891269815 0.9421670477890216 1.1711541797537977 1.2604750284433597
          1.250225271086675 1.2099249347699683 1.2766398075805285 1.603638813527123 2.080795345371072 2.312535423847214
          2.312535423847214 2.312535423847214 2.312535423847214 2.312535423847214 2.312535423847214 2.312535423847214
          2.312535423847214 2.312535423847214 2.153274732282358 1.666302162359146 1.311234296665343 1.125770501239149
          1.030328681710146 0.9522247453096357 0.87750162371057 0.7911691664452776 0.6842906201286031 0.5887520662186697
          0.5256816808026876 0.5297089007794047 0.6264895143746513 0.813901806627223 1.0499116040615464 1.2183899207982165
          1.2681853817489441 1.2447849875431776 1.2130329891175315 1.3129507082347018 1.654845582221908 2.138058783090796
          2.312535423847214 2.312535423847214 2.312535423847214 2.312535423847214 2.312535423847214 2.312535423847214
          2.312535423847214 2.312535423847214 2.312535423847214 2.151293681342701 1.6286180462286768 1.2766453698089488
          1.1210742392189161 1.0426601448072041 0.9843253800481446 0.920165776817497 0.8475209653148661 0.7687582691047979
          0.7051932352205406 0.6640680697056084 0.6960913638099139 0.8088856190080638 0.9849910793382641 1.1573275073298672
          1.2553235484944907 1.272123986303449 1.2454588675981553 1.2303560413442816 1.374058028320998 1.7440649510144342
          2.238169227419911 2.312535423847214 2.312535423847214 2.312535423847214 2.312535423847214 2.312535423847214
          2.312535423847214 2.312535423847214 2.312535423847214 2.312535423847214 2.2100079353643713 1.6654382855168204
          1.2982113918919778 1.1571453470810302 1.1057364376540055 1.07874849337114 1.0451364070670799 1.0087949915146375
          0.9730814116687466 0.9381769967836326 0.9158981882557372 0.9265652642703691 1.0003221940842575 1.1150645539056308
          1.2248865040005958 1.2817638374941025 1.2810192073259745 1.2508887916219504 1.2668471894889695 1.461048599264258
          1.8552230109267422 2.312535423847214 2.312535423847214 2.312535423847214 2.312535423847214 2.312535423847214
          2.312535423847214 2.312535423847214 2.312535423847214 2.312535423847214 2.312535423847214 2.312535423847214
          1.8082482361350194 1.3956859303230549 1.2163331279052014 1.164767525492632 1.1524167851360854 1.1505318813293888
          1.1483967903136079 1.1392252414432007 1.1115450641109548 1.0864777370179035 1.0628562460698798 1.1055824284694449
          1.2013162853563621 1.2858550041873082 1.3076466089031364 1.2869595404155032 1.2692599135000842 1.341612657449406
          1.5947715371868776 2.028493035073544 2.312535423847214 2.312535423847214 2.312535423847214 2.312535423847214
          2.312535423847214 2.312535423847214 2.312535423847214 2.312535423847214 2.312535423847214 2.312535423847214
          2.312535423847214 2.0509601347401305 1.590036872569506 1.3200067759625884 1.21212602427884 1.1760931367411296
          1.17157180492247 1.1815422552115544 1.1842072571047635 1.1673914310924025 1.1263051989057864 1.0995738619596371
          1.171354098994996 1.279144820115248 1.3262508446702315 1.3093165872845673 1.2867664746670584 1.3164679583724872
          1.4717807398500469 1.8048745068186909 2.2965080457053832 2.312535423847214 2.312535423847214 2.312535423847214
          2.312535423847214 2.312535423847214 2.312535423847214 2.312535423847214 2.312535423847214 2.312535423847214
          2.312535423847214 2.312535423847214 2.312535423847214 1.851142885755496 1.4986887124072057 1.2955527111013585
          1.198984526366338 1.1642279796558697 1.1628116547992757 1.1583369965976196 1.1476959940590286 1.1319104791808692
          1.1500940009664784 1.2368411042793592 1.2992210082218678 1.294502336986417 1.2718528037028352 1.2960376041979613
          1.4092128523046494 1.6768152040209796 2.109408764029683 2.312535423847214 2.312535423847214 2.312535423847214
          2.312535423847214 2.312535423847214 2.312535423847214 2.312535423847214 2.312535423847214 2.312535423847214
          2.312535423847214 2.312535423847214 2.312535423847214 2.312535423847214 2.1122051884459285 1.7332645100895547
          1.461771272573831 1.294585394197558 1.2095094232221848 1.1685142010622183 1.140311369383055 1.1321773847426388
          1.156973440794328 1.212953158082555 1.2483265123220415 1.2354197619378533 1.2237147443424117 1.2580984289256227
          1.3732446656470778 1.5949174835143054 1.9786703638693255 2.312535423847214 2.312535423847214 2.312535423847214
          2.312535423847214 2.312535423847214 2.312535423847214 2.312535423847214 2.312535423847214 2.312535423847214
          2.312535423847214 2.312535423847214 2.312535423847214 2.312535423847214 2.312535423847214 2.312535423847214
          2.0163794006562767 1.7119641753841268 1.4784856705358913 1.3312336229205923 1.245898932669551 1.1914870574269243
          1.1753914229609006 1.213847072397319 1.2594611541630423 1.2357307760753107 1.184550467082916 1.2209766812686882
          1.3681967284799514 1.5844653690766488 1.8835605306282575 2.3108099960490693 2.312535423847214 2.312535423847214
          2.312535423847214 2.312535423847214 2.312535423847214 2.312535423847214 2.312535423847214 2.312535423847214
          2.312535423847214 2.312535423847214 2.312535423847214 2.312535423847214 2.312535423847214 2.312535423847214
          2.312535423847214 2.312535423847214 2.059278537176843 1.8024881708295202 1.6017189123328748 1.4475316581921693
          1.3439887986079249 1.2978795076800884 1.301426508047011 1.305054183302923 1.2717102228393313 1.2778082289441774
          1.4172687141974671 1.65914115434887 1.936459629999398 2.2664294214138065 2.312535423847214 2.312535423847214
          2.312535423847214 2.312535423847214 2.312535423847214 2.312535423847214 2.312535423847214 2.312535423847214
          2.312535423847214 2.312535423847214 2.312535423847214 2.312535423847214 2.312535423847214 2.312535423847214
          2.312535423847214 2.312535423847214 2.312535423847214 2.312535423847214 2.2485988431938915 2.038365858278057
          1.8459213458035966 1.6630654224665076 1.5480026847034403 1.497458259863935 1.4688100074224315 1.4755856344167457
          1.5729595586936687 1.7797297267442511 2.0697038842778763 2.312535423847214 2.312535423847214 2.312535423847214
          2.312535423847214 2.312535423847214 2.312535423847214 2.312535423847214 2.312535423847214 2.312535423847214
          2.312535423847214 2.312535423847214 2.312535423847214 2.312535423847214 2.312535423847214 2.312535423847214
          2.312535423847214 2.312535423847214 2.312535423847214 2.312535423847214 2.312535423847214 2.312535423847214
          2.312535423847214 2.312535423847214 2.146029002954615 1.9615574992783082 1.8626721466406153 1.825935819081606
          1.8803559754823715 2.032567426810049 2.267219047840233 2.312535423847214 2.312535423847214 2.312535423847214
          2.312535423847214 2.312535423847214 2.312535423847214 2.312535423847214 2.312535423847214 2.312535423847214
          2.312535423847214 2.312535423847214 2.312535423847214 2.312535423847214 2.312535423847214 2.312535423847214
          2.312535423847214 2.312535423847214 2.312535423847214 2.312535423847214 2.312535423847214 2.312535423847214
          2.312535423847214 2.312535423847214 2.312535423847214 2.312535423847214 2.312535423847214 2.312535423847214
          2.312535423847214 2.312535423847214 2.312535423847214 2.312535423847214 2.312535423847214 2.312535423847214
          2.312535423847214 2.312535423847214 2.312535423847214 2.312535423847214 2.312535423847214 2.312535423847214
          2.312535423847214 2.312535423847214 2.312535423847214 2.312535423847214 2.312535423847214 2.312535423847214
          2.312535423847214 2.312535423847214 2.312535423847214 2.312535423847214 2.312535423847214 2.312535423847214
          2.312535423847214 2.312535423847214 2.312535423847214 2.312535423847214 2.312535423847214 2.312535423847214
          2.312535423847214 2.312535423847214 2.312535423847214 2.312535423847214 2.312535423847214 2.312535423847214
          2.312535423847214 2.312535423847214 2.312535423847214 2.312535423847214 2.312535423847214 2.312535423847214
          2.312535423847214 2.312535423847214 2.312535423847214 2.312535423847214 2.312535423847214 2.312535423847214
          2.312535423847214 2.312535423847214 2.312535423847214 2.312535423847214 2.312535423847214 2.312535423847214
          2.312535423847214 2.312535423847214 2.312535423847214 2.312535423847214 2.312535423847214 2.312535423847214
          2.312535423847214 2.312535423847214 2.312535423847214 2.312535423847214 2.312535423847214 2.312535423847214
          2.312535423847214 2.312535423847214 2.312535423847214 2.312535423847214 2.312535423847214 2.312535423847214
          2.312535423847214 2.312535423847214 2.312535423847214 2.312535423847214 2.312535423847214 2.312535423847214
          2.312535423847214 2.312535423847214 2.312535423847214 2.312535423847214 2.312535423847214 2.312535423847214
          2.312535423847214 2.312535423847214 2.312535423847214 2.312535423847214 2.312535423847214 2.312535423847214
          2.312535423847214 2.312535423847214 2.312535423847214 2.312535423847214 2.312535423847214 2.312535423847214
          2.312535423847214 2.312535423847214 2.312535423847214 2.312535423847214 2.312535423847214 2.312535423847214
          2.312535423847214 2.312535423847214 2.312535423847214 2.312535423847214 2.312535423847214 2.312535423847214
          2.312535423847214 
        </DataArray>
      </PointData>
      <CellData>
        <DataArray type="Float32" Name="averaged zvalue" NumberOfComponents="1" format="ascii" RangeMin="0.5125005344357925" RangeMax="2.312535423847214">
          2.312535423847214 2.312535423847214 2.312535423847214 2.312535423847214 2.312535423847214 2.312535423847214
          2.312535423847214 2.312535423847214 2.312535423847214 2.312535423847214 2.312535423847214 2.312535423847214
          2.312535423847214 2.312535423847214 2.312535423847214 2.312535423847214 2.312535423847214 2.312535423847214
          2.312535423847214 2.312535423847214 2.312535423847214 2.312535423847214 2.312535423847214 2.312535423847214
          2.312535423847214 2.312535423847214 2.312535423847214 2.312535423847214 2.312535423847214 2.312535423847214
          2.312535423847214 2.312535423847214 2.312535423847214 2.312535423847214 2.312535423847214 2.312535423847214
          2.312535423847214 2.312535423847214 2.312535423847214 2.312535423847214 2.312535423847214 2.312535423847214
          2.312535423847214 2.312535423847214 2.312535423847214 2.312535423847214 2.312535423847214 2.312535423847214
          2.312535423847214 2.312535423847214 2.312535423847214 2.312535423847214 2.312535423847214 2.312535423847214
          2.312535423847214 2.312535423847214 2.312535423847214 2.312535423847214 2.312535423847214 2.312535423847214
          2.312535423847214 2.312535423847214 2.312535423847214 2.312535423847214 2.312535423847214 2.312535423847214
          2.312535423847214 2.312535423847214 2.312535423847214 2.312535423847214 2.312535423847214 2.312535423847214
          2.312535423847214 2.312535423847214 2.312535423847214 2.312535423847214 2.312535423847214 2.312535423847214
          2.312535423847214 2.312535423847214 2.312535423847214 2.312535423847214 2.312535423847214 2.312535423847214
          2.312535423847214 2.312535423847214 2.312535423847214 2.312535423847214 2.312535423847214 2.312535423847214
          2.312535423847214 2.312535423847214 2.312535423847214 2.312535423847214 2.312535423847214 2.312535423847214
          2.312535423847214 2.312535423847214 2.312535423847214 2.312535423847214 2.312535423847214 2.312535423847214
          2.312535423847214 2.312535423847214 2.312535423847214 2.312535423847214 2.312535423847214 2.312535423847214
          2.312535423847214 2.312535423847214 2.312535423847214 2.312535423847214 2.312535423847214 2.312535423847214
          2.312535423847214 2.312535423847214 2.312535423847214 2.312535423847214 2.312535423847214 2.312535423847214
          2.312535423847214 2.312535423847214 2.312535423847214 2.312535423847214 2.312535423847214 2.312535423847214
          2.312535423847214 2.312535423847214 2.312535423847214 2.312535423847214 2.30185857487432 2.2577099151884292
          2.213604737033168 2.2022702098797846 2.2023663076007107 2.2049041370998097 2.2135971529243377 2.2390779034955686
          2.285070817078269 2.312535423847214 2.312535423847214 2.312535423847214 2.312535423847214 2.312535423847214
          2.312535423847214 2.312535423847214 2.312535423847214 2.312535423847214 2.312535423847214 2.312535423847214
          2.312535423847214 2.312535423847214 2.312535423847214 2.312535423847214 2.312535423847214 2.312535423847214
          2.312535423847214 2.312535423847214 2.312535423847214 2.235983679857475 2.0969243993071878 1.9781741065289005
          1.9051598904280436 1.8877849219343874 1.888574282980104 1.8927553314428998 1.9075218833587217 1.9528895285862622
          2.0444878087080074 2.1518265880664256 2.256745891634285 2.312535423847214 2.312535423847214 2.312535423847214
          2.312535423847214 2.312535423847214 2.312535423847214 2.312535423847214 2.312535423847214 2.312535423847214
          2.312535423847214 2.312535423847214 2.312535423847214 2.312535423847214 2.312535423847214 2.312535423847214
          2.312535423847214 2.3034783672122536 2.2011231838345173 1.9667308002601314 1.7417095107906908 1.618950958301463
          1.5674090911943124 1.5528152527373267 1.5483759241480322 1.5432775739574387 1.5471558427694636 1.5793104060971057
          1.6584435323091011 1.800653866951363 2.0074739085335565 2.2038907903122547 2.297417022249663 2.312535423847214
          2.312535423847214 2.312535423847214 2.312535423847214 2.312535423847214 2.312535423847214 2.312535423847214
          2.312535423847214 2.312535423847214 2.312535423847214 2.312535423847214 2.312535423847214 2.312535423847214
          2.3081741132986573 2.1904772019183505 1.9067638682595238 1.6335423955028832 1.482616647774719 1.4101202536298576
          1.3745107688481244 1.3566402859885796 1.340696161109225 1.3202649100922192 1.3053357026883725 1.3152738848531167
          1.3649594134096463 1.4666422244239428 1.6422741071170073 1.9027241318029522 2.152774657814142 2.282420152107515
          2.312535423847214 2.312535423847214 2.312535423847214 2.312535423847214 2.312535423847214 2.312535423847214
          2.312535423847214 2.312535423847214 2.312535423847214 2.312535423847214 2.312535423847214 2.312535423847214
          2.2117681375729537 1.9128589166631789 1.5888010401163544 1.409327049820177 1.336736581719732 1.3086572139478174
          1.294762244798793 1.2823262500963917 1.2622696468448011 1.2333194398543967 1.2026014679135268 1.1853214494664628
          1.1959917709639238 1.2478536525062738 1.3627429850202757 1.56644986558389 1.8583913482055714 2.147708631153853
          2.292292669783723 2.312535423847214 2.312535423847214 2.312535423847214 2.312535423847214 2.312535423847214
          2.312535423847214 2.312535423847214 2.312535423847214 2.312535423847214 2.312535423847214 2.2525017790764563
          1.9862216189121022 1.616169854493325 1.3800079330634554 1.2910234259047884 1.2754894074075367 1.280319525892851
          1.286051452352509 1.2815936646037815 1.2599848618950282 1.2249489449942303 1.1883132373579661 1.1604556762453146
          1.1466767782142577 1.159529801894763 1.2162435423759212 1.3456293947886888 1.580374396333713 1.9165801769641304
          2.2093890169458397 2.312535423847214 2.312535423847214 2.312535423847214 2.312535423847214 2.312535423847214
          2.312535423847214 2.312535423847214 2.312535423847214 2.312535423847214 2.306279927958822 2.12361545011517
          1.7434183188607164 1.422374340912025 1.2712299344808644 1.2407586440830023 1.2549956694580204 1.273792075840689
          1.2820302670260115 1.269083207126163 1.2316914127188778 1.1815627617116828 1.1445691876812825 1.1338895907870281
          1.1389911648555044 1.1528368227056112 1.1788251155439065 1.242037911267618 1.401893301717682 1.703622658514632
          2.094450848010851 2.3048016852489175 2.312535423847214 2.312535423847214 2.312535423847214 2.312535423847214
          2.312535423847214 2.312535423847214 2.312535423847214 2.312535423847214 2.249334553048251 1.9607413036937449
          1.5637570725798189 1.3109992151606924 1.2126106360557654 1.2046938603085346 1.2241108497823967 1.2347719522386278
          1.219135359058844 1.1708043369806687 1.0990404459184928 1.0310303898463111 1.0062778238825918 1.0400515729028637
          1.1062597886000822 1.1645038641233592 1.1934798349984999 1.213845241867591 1.3058426549697981 1.565628532457378
          1.9881266792203482 2.2709054285351185 2.312535423847214 2.312535423847214 2.312535423847214 2.312535423847214
          2.312535423847214 2.312535423847214 2.312535423847214 2.312535423847214 2.161919287781131 1.801144670612105
          1.4464693341245034 1.2387451986100553 1.1603752000058472 1.1489414603247208 1.1522673455443055 1.1342322836370629
          1.0742320542621329 0.9765525005975179 0.8725259771498209 0.8062975697139445 0.8159011735357768 0.9091899416729252
          1.0522961598355658 1.1729480747057153 1.2203006166129826 1.2186260793904653 1.2632394007411762 1.4854678493953544
          1.9016282386161665 2.2290091595495425 2.312535423847214 2.312535423847214 2.312535423847214 2.312535423847214
          2.312535423847214 2.312535423847214 2.312535423847214 2.3086159805573305 2.0944073780457155 1.6873767359823009
          1.3635161283493828 1.1787553373123845 1.0992777039472883 1.0686153720908278 1.0436501757157355 0.9884511460534444
          0.8871975407430412 0.7612200497431787 0.6561650443790006 0.616649538761626 0.6662414000839209 0.8117309023493976
          1.0184562658886855 1.1837073239552118 1.2414622429481366 1.2283918795118391 1.2468658214197612 1.4446934384067092
          1.8534399874784935 2.205007408122125 2.312535423847214 2.312535423847214 2.312535423847214 2.312535423847214
          2.312535423847214 2.312535423847214 2.312535423847214 2.2825428068205067 2.0184298313648226 1.5968210291037117
          1.2957231285767783 1.127185628543545 1.040540448137832 0.9858705496758483 0.9309031312066567 0.8471105877780225
          0.731066006765754 0.6116729014311056 0.5321521287834841 0.5285135417464715 0.6156143128980298 0.7994721445704723
          1.0346446285876265 1.2035569757204216 1.2522703563220305 1.2308912648046104 1.2428253551345523 1.4363251042252
          1.8399601788820967 2.1967023960869616 2.312535423847214 2.312535423847214 2.312535423847214 2.312535423847214
          2.312535423847214 2.312535423847214 2.312535423847214 2.2466470772191762 1.9415136277475789 1.5216131577582142
          1.2412288973947208 1.0909979268700227 1.0027803100807204 0.9314690746780294 0.8565793192215049 0.761213285069666
          0.6530423493128206 0.5590177874494265 0.5125005344357925 0.5450078008113647 0.6695792086777059 0.8755455119011931
          1.0954056881006455 1.2295511276860795 1.255917667205539 1.2294920456293381 1.2531371099256825 1.4620187278910652
          1.8693346310527246 2.2109812440390737 2.312535423847214 2.312535423847214 2.312535423847214 2.312535423847214
          2.312535423847214 2.312535423847214 2.312535423847214 2.2324098153298717 1.8998721555532203 1.4706999687655287
          1.2086811017330892 1.0799583917438538 1.0023847379687827 0.9335543814714619 0.8590893830720526 0.7729347552483862
          0.6867485476681527 0.6209237629868766 0.6038875037744036 0.6652938494930083 0.8085670048370506 1.0015329993392252
          1.1702381451710302 1.2535057093362751 1.2576383057984315 1.2334082214007864 1.2825994417543782 1.5214798174480104
          1.9437846359367623 2.2503247145512835 2.312535423847214 2.312535423847214 2.312535423847214 2.312535423847214