<VTKFile type="PolyData" version="1.0" byte_order="LittleEndian" header_type="UInt64">
  <PolyData>
    <Piece NumberOfPoints="961" NumberOfVerts="0" NumberOfLines="0" NumberOfStrips="0" NumberOfPolys="900">
      <PointData>
        <DataArray type="Float32" Name="zvalue" NumberOfComponents="1" format="ascii" RangeMin="0.13094598152267786" RangeMax="2.312535423847214">
          2.312535423847214 2.312535423847214 2.312535423847214 2.312535423847214 2.312535423847214 2.312535423847214
          2.312535423847214 2.312535423847214 2.312535423847214 2.312535423847214 2.312535423847214 2.312535423847214
          2.312535423847214 2.312535423847214 2.312535423847214 2.312535423847214 2.312535423847214 2.312535423847214
          2.312535423847214 2.312535423847214 2.312535423847214 2.312535423847214 2.312535423847214 2.312535423847214
          2.312535423847214 2.312535423847214 2.312535423847214 2.312535423847214 2.312535423847214 2.312535423847214
          2.312535423847214 2.312535423847214 2.312535423847214 2.312535423847214 2.312535423847214 2.312535423847214
          2.312535423847214 2.312535423847214 2.312535423847214 2.312535423847214 2.312535423847214 2.312535423847214
          2.312535423847214 2.312535423847214 2.312535423847214 2.312535423847214 2.312535423847214 2.312535423847214
          2.312535423847214 2.312535423847214 2.312535423847214 2.312535423847214 2.312535423847214 2.312535423847214
          2.312535423847214 2.312535423847214 2.312535423847214 2.312535423847214 2.312535423847214 2.312535423847214
          2.312535423847214 2.312535423847214 2.312535423847214 2.312535423847214 2.312535423847214 2.312535423847214
          2.312535423847214 2.312535423847214 2.312535423847214 2.312535423847214 2.312535423847214 2.312535423847214
          2.312535423847214 2.312535423847214 2.312535423847214 2.312535423847214 2.312535423847214 2.312535423847214
          2.312535423847214 2.312535423847214 2.312535423847214 2.312535423847214 2.312535423847214 2.312535423847214
          2.312535423847214 2.312535423847214 2.312535423847214 2.312535423847214 2.312535423847214 2.312535423847214
          2.312535423847214 2.312535423847214 2.312535423847214 2.312535423847214 2.312535423847214 2.312535423847214
          2.312535423847214 2.312535423847214 2.312535423847214 2.312535423847214 2.312535423847214 2.312535423847214
          2.312535423847214 2.312535423847214 2.312535423847214 2.312535423847214 2.312535423847214 2.312535423847214
          2.312535423847214 2.312535423847214 2.312535423847214 2.312535423847214 2.312535423847214 2.312535423847214
          2.312535423847214 2.312535423847214 2.312535423847214 2.312535423847214 2.312535423847214 2.312535423847214
          2.312535423847214 2.312535423847214 2.312535423847214 2.312535423847214 2.312535423847214 2.312535423847214
          2.312535423847214 2.312535423847214 2.312535423847214 2.312535423847214 2.312535423847214 2.312535423847214
          2.312535423847214 2.312535423847214 2.312535423847214 2.312535423847214 2.312535423847214 2.312535423847214
          2.312535423847214 2.312535423847214 2.312535423847214 2.312535423847214 2.312535423847214 2.312535423847214
          2.312535423847214 2.312535423847214 2.312535423847214 2.312535423847214 2.312535423847214 2.312535423847214
          2.312535423847214 2.312535423847214 2.312535423847214 2.312535423847214 2.312535423847214 2.312535423847214
          2.312535423847214 2.312535423847214 2.312535423847214 2.312535423847214 2.312535423847214 2.312535423847214
          2.312535423847214 2.312535423847214 2.312535423847214 2.312535423847214 2.312535423847214 2.312535423847214
          2.2495917713580353 2.2413554008837995 2.271413320432196 2.312535423847214 2.312535423847214 2.312535423847214
          2.312535423847214 2.312535423847214 2.312535423847214 2.312535423847214 2.312535423847214 2.312535423847214
          2.312535423847214 2.312535423847214 2.312535423847214 2.312535423847214 2.312535423847214 2.312535423847214
          2.312535423847214 2.312535423847214 2.312535423847214 2.312535423847214 2.312535423847214 2.312535423847214
          2.312535423847214 2.312535423847214 2.312535423847214 2.25261150958378 2.0643904694346 1.938561480847069
          1.8295223305056396 1.7389076696029213 1.7245516395494045 1.7612593242223658 1.8396972865620866 1.9612047661786445
          2.0940760750869702 2.2199626338864342 2.312535423847214 2.312535423847214 2.312535423847214 2.312535423847214
          2.312535423847214 2.312535423847214 2.312535423847214 2.312535423847214 2.312535423847214 2.312535423847214
          2.312535423847214 2.312535423847214 2.312535423847214 2.312535423847214 2.312535423847214 2.312535423847214
          2.312535423847214 2.312535423847214 2.312535423847214 2.12998005398231 1.8833053021789337 1.6867195725415902
          1.5487040425352903 1.4366688315470972 1.350689944112964 1.3270467724029034 1.3413261584437204 1.4046591560500818
          1.5126399542101687 1.645340248644815 1.7812180840255223 1.9315182995793991 2.1187264266192085 2.312535423847214
          2.312535423847214 2.312535423847214 2.312535423847214 2.312535423847214 2.312535423847214 2.312535423847214
          2.312535423847214 2.312535423847214 2.312535423847214 2.312535423847214 2.312535423847214 2.312535423847214
          2.312535423847214 2.312535423847214 2.312535423847214 2.1484469743773644 1.8104369452535105 1.56518181723982
          1.3858701183859294 1.272555001241891 1.1926700003305173 1.1333204809277426 1.1029635578403694 1.094985269787003
          1.130583137514161 1.2190095666572602 1.3398205152987013 1.4586038546229825 1.5822160124493208 1.7518558271005593
          2.0113476801950645 2.312535423847214 2.312535423847214 2.312535423847214 2.312535423847214 2.312535423847214
          2.312535423847214 2.312535423847214 2.312535423847214 2.312535423847214 2.312535423847214 2.312535423847214
          2.312535423847214 2.312535423847214 2.312535423847214 2.2823197778393847 1.8750459803481292 1.561794949009866
          1.3337748254387265 1.1887326576920232 1.1132938332410447 1.0695897424149643 1.023206541432954 0.9603782743773533
          0.9261208203197644 0.9539512373240281 1.0433718920894572 1.1850923184716122 1.3078510052765544 1.395484380288881
          1.510190366274712 1.7332620596629025 2.09138091539278 2.312535423847214 2.312535423847214 2.312535423847214
          2.312535423847214 2.312535423847214 2.312535423847214 2.312535423847214 2.312535423847214 2.312535423847214
          2.312535423847214 2.312535423847214 2.312535423847214 2.312535423847214 2.026372721502449 1.6556732120887525
          1.3828467334770342 1.199963257393029 1.0969542173633082 1.0559480902150797 1.033726076206413 0.9521898960676334
          0.8058827038061193 0.7273507639573545 0.7634888609027901 0.8670105527924508 1.050650127880761 1.2463415681192827
          1.351058025207125 1.4094220889459999 1.5611493543195019 1.886446969902639 2.312535423847214 2.312535423847214
          2.312535423847214 2.312535423847214 2.312535423847214 2.312535423847214 2.312535423847214 2.312535423847214
          2.312535423847214 2.312535423847214 2.312535423847214 2.312535423847214 2.2650841599121145 1.806489047689605
          1.4857295066435847 1.272853066811599 1.145205997221241 1.0819792603080076 1.0626845093431059 1.029244819437568
          0.8793874837828515 0.6538784141509896 0.5451425780187868 0.5760123560568476 0.6843302298538061 0.8929122977846189
          1.1787139785076628 1.3589565985278136 1.4055928090272334 1.4754261135568543 1.722626701372462 2.1451746537608343
          2.312535423847214 2.312535423847214 2.312535423847214 2.312535423847214 2.312535423847214 2.312535423847214
          2.312535423847214 2.312535423847214 2.312535423847214 2.312535423847214 2.312535423847214 2.061709596094834
          1.6326202244619064 1.3782111590460222 1.2208546414503765 1.1320426480826886 1.0995660410584391 1.082603399717586
          0.995124288808406 0.7763942819562533 0.5308102669131289 0.4113574515020394 0.4163713220316872 0.516713100052513
          0.7451472629634162 1.0709328213964318 1.3173962888813484 1.395168627691853 1.4319014485537984 1.598949983162501
          2.002018694480068 2.312535423847214 2.312535423847214 2.312535423847214 2.312535423847214 2.312535423847214
          2.312535423847214 2.312535423847214 2.312535423847214 2.312535423847214 2.312535423847214 2.312535423847214
          1.9468036250178236 1.5253109892360788 1.3099214664039747 1.1924133703548243 1.1357904172578717 1.1208112559011958
          1.0796746329784153 0.9229026291186487 0.6571738180265444 0.4147924387026376 0.29704311926121807 0.2816143194641152
          0.3891748352277288 0.647281934572995 0.9698365353469568 1.2302536918762899 1.3430546241326464 1.3814417907821397
          1.5103546258325682 1.8909954046088786 2.312535423847214 2.312535423847214 2.312535423847214 2.312535423847214
          2.312535423847214 2.312535423847214 2.312535423847214 2.312535423847214 2.312535423847214 2.312535423847214
          2.312535423847214 1.9000187750508886 1.4724707603630316 1.2600260363921814 1.1725236511444925 1.1398711139113913
          1.136710706891801 1.0742686558905095 0.8680699896139606 0.5601536527947453 0.30842487896088117 0.19507542716849882
          0.2056924017913614 0.3800157711459591 0.6688996550775258 0.9400528609653802 1.1550774511717306 1.2742117767463053
          1.3062344336354277 1.4386849555609835 1.8075235691490745 2.275873084396931 2.312535423847214 2.312535423847214
          2.312535423847214 2.312535423847214 2.312535423847214 2.312535423847214 2.312535423847214 2.312535423847214
          2.312535423847214 2.312535423847214 1.8565007095322834 1.4327708816623652 1.2222808467212256 1.1561461202688559
          1.1475308744278332 1.1647769366953011 1.118096190852452 0.8966557117530318 0.5375983571039514 0.24630911697583102
          0.13094598152267786 0.2562352867026489 0.567526450991743 0.8261329420531602 0.9969338747195355 1.1343856469143503
          1.228783846353758 1.2465101192254695 1.4039393689449853 1.776502614845792 2.222514202639344 2.312535423847214
          2.312535423847214 2.312535423847214 2.312535423847214 2.312535423847214 2.312535423847214 2.312535423847214
          2.312535423847214 2.312535423847214 2.312535423847214 1.8855258985254777 1.4385824967781284 1.2107725872993005
          1.1498665192459063 1.172883630279006 1.22594391694513 1.2134287713814018 1.0025545480920002 0.6005047371407812
          0.2541897743355025 0.2093162361080494 0.5295080790329667 0.8543014891623185 1.0433680450976037 1.120336392731443
          1.179256703378737 1.2276327190471426 1.2361596984235097 1.4177273418882426 1.801633283643189 2.232652002537945
          2.312535423847214 2.312535423847214 2.312535423847214 2.312535423847214 2.312535423847214 2.312535423847214
          2.312535423847214 2.312535423847214 2.312535423847214 2.312535423847214 2.0321207927388407 1.5132083439578683
          1.2419297788543486 1.159062223501061 1.2101649706047726 1.3029393314564275 1.3237313133932174 1.1368939129994544
          0.742678898719524 0.42706126538021366 0.5432392829990895 0.8923433292320206 1.137574207640263 1.2632393973973124
          1.269909450557215 1.2608264807031875 1.257913551678827 1.2678774173489629 1.477030561735566 1.8643407549289963
          2.2819838884054775 2.312535423847214 2.312535423847214 2.312535423847214 2.312535423847214 2.312535423847214
          2.312535423847214 2.312535423847214 2.312535423847214 2.312535423847214 2.312535423847214 2.1969805024643447
          1.6330949121326441 1.3108169338881528 1.176814033964032 1.2196238157196235 1.3426145761535744 1.3888396043268723
          1.2489808024438023 0.9395879970004632 0.7321413436263067 0.9001767210402191 1.1823653063231405 1.3772336586847864
          1.4284529037121028 1.3664386687561172 1.3239780270942945 1.2963807089533523 1.3407360608372296 1.572345305472472
          1.9471710459467246 2.312535423847214 2.312535423847214 2.312535423847214 2.312535423847214 2.312535423847214
          2.312535423847214 2.312535423847214 2.312535423847214 2.312535423847214 2.312535423847214 2.312535423847214
          2.312535423847214 1.8221492892258058 1.422505237123331 1.2060173259113165 1.1885935013890465 1.3138959168717357
          1.3752477986142502 1.2825580487668493 1.0810770108967191 0.9643597201826619 1.1132856942536125 1.3484266408738825
          1.4763076182093051 1.4464814509610526 1.358026838552983 1.3269958619783626 1.3406236294839182 1.4453072817601051
          1.6901872045245074 2.0384571529412505 2.312535423847214 2.312535423847214 2.312535423847214 2.312535423847214
          2.312535423847214 2.312535423847214 2.312535423847214 2.312535423847214 2.312535423847214 2.312535423847214
          2.312535423847214 2.312535423847214 2.1396283092400044 1.6144853242250128 1.283691315119283 1.1523052969513727
          1.2172193064765096 1.2960522122616582 1.2580650797281232 1.1350949003472464 1.0552267000531224 1.151707486725345
          1.3128352155883833 1.3677861359066377 1.3103494413482262 1.2683803073261428 1.3029970809046099 1.3999479807749478
          1.5713034149210874 1.842346030568164 2.1720890268458675 2.312535423847214 2.312535423847214 2.312535423847214
          2.312535423847214 2.312535423847214 2.312535423847214 2.312535423847214 2.312535423847214 2.312535423847214
          2.312535423847214 2.312535423847214 2.312535423847214 2.312535423847214 1.9362263137788271 1.4766382219163598
          1.2044219263635534 1.1178386167063936 1.1556818463562506 1.190273756987975 1.128641736619965 1.0464560232743572
          1.0649619561287964 1.1278721102458609 1.1498959111427884 1.161052500025587 1.2141028081987886 1.3257288520243622
          1.5047557973546428 1.7407110722402679 2.0374190201847537 2.312535423847214 2.312535423847214 2.312535423847214
          2.312535423847214 2.312535423847214 2.312535423847214 2.312535423847214 2.312535423847214 2.312535423847214
          2.312535423847214 2.312535423847214 2.312535423847214 2.312535423847214 2.312535423847214 2.312535423847214
          1.817224171549415 1.4367886929997546 1.1950962370021974 1.0818678498117458 1.0918340771684842 1.0859722596693908
          1.013084463381214 0.9819054352040277 1.005979200431188 1.0554586859092112 1.1514668163687685 1.2861005691171477
          1.4715281132869396 1.6930233511721768 1.948258238522936 2.2424362847696786 2.312535423847214 2.312535423847214
          2.312535423847214 2.312535423847214 2.312535423847214 2.312535423847214 2.312535423847214 2.312535423847214
          2.312535423847214 2.312535423847214 2.312535423847214 2.312535423847214 2.312535423847214 2.312535423847214
          2.312535423847214 2.296644600158507 1.8517835708863013 1.5285087267372068 1.3040378852791847 1.1806414434446486
          1.123412793932919 1.0669547867630969 1.026002237500799 1.043725493053501 1.1255019565460387 1.2726934030627701
          1.4890043406694689 1.7316821090069499 1.9639473730244315 2.212856673192774 2.312535423847214 2.312535423847214
          2.312535423847214 2.312535423847214 2.312535423847214 2.312535423847214 2.312535423847214 2.312535423847214
          2.312535423847214 2.312535423847214 2.312535423847214 2.312535423847214 2.312535423847214 2.312535423847214
          2.312535423847214 2.312535423847214 2.312535423847214 2.312535423847214 2.0345522489414014 1.8103913530652214
          1.6465201624673855 1.4879390705129343 1.3679032226800047 1.308832061768345 1.3257230999631855 1.4262089700913427
          1.5963910238099972 1.8262642675468352 2.0951640667580143 2.312535423847214 2.312535423847214 2.312535423847214
          2.312535423847214 2.312535423847214 2.312535423847214 2.312535423847214 2.312535423847214 2.312535423847214
          2.312535423847214 2.312535423847214 2.312535423847214 2.312535423847214 2.312535423847214 2.312535423847214
          2.312535423847214 2.312535423847214 2.312535423847214 2.312535423847214 2.312535423847214 2.312535423847214
          2.312535423847214 2.25779987897708 2.0668513767378505 1.9172982919789598 1.8659491513293285 1.8845426427600032
          1.9756283514574768 2.1133748802775743 2.2965669796815935 2.312535423847214 2.312535423847214 2.312535423847214
          2.312535423847214 2.312535423847214 2.312535423847214 2.312535423847214 2.312535423847214 2.312535423847214
          2.312535423847214 2.312535423847214 2.312535423847214 2.312535423847214 2.312535423847214 2.312535423847214
          2.312535423847214 2.312535423847214 2.312535423847214 2.312535423847214 2.312535423847214 2.312535423847214
          2.312535423847214 2.312535423847214 2.312535423847214 2.312535423847214 2.312535423847214 2.312535423847214
          2.312535423847214 2.312535423847214 2.312535423847214 2.312535423847214 2.312535423847214 2.312535423847214
          2.312535423847214 2.312535423847214 2.312535423847214 2.312535423847214 2.312535423847214 2.312535423847214
          2.312535423847214 2.312535423847214 2.312535423847214 2.312535423847214 2.312535423847214 2.312535423847214
          2.312535423847214 2.312535423847214 2.312535423847214 2.312535423847214 2.312535423847214 2.312535423847214
          2.312535423847214 2.312535423847214 2.312535423847214 2.312535423847214 2.312535423847214 2.312535423847214
          2.312535423847214 2.312535423847214 2.312535423847214 2.312535423847214 2.312535423847214 2.312535423847214
          2.312535423847214 2.312535423847214 2.312535423847214 2.312535423847214 2.312535423847214 2.312535423847214
          2.312535423847214 2.312535423847214 2.312535423847214 2.312535423847214 2.312535423847214 2.312535423847214
          2.312535423847214 2.312535423847214 2.312535423847214 2.312535423847214 2.312535423847214 2.312535423847214
          2.312535423847214 2.312535423847214 2.312535423847214 2.312535423847214 2.312535423847214 2.312535423847214
          2.312535423847214 2.312535423847214 2.312535423847214 2.312535423847214 2.312535423847214 2.312535423847214
          2.312535423847214 2.312535423847214 2.312535423847214 2.312535423847214 2.312535423847214 2.312535423847214
          2.312535423847214 2.312535423847214 2.312535423847214 2.312535423847214 2.312535423847214 2.312535423847214
          2.312535423847214 2.312535423847214 2.312535423847214 2.312535423847214 2.312535423847214 2.312535423847214
          2.312535423847214 2.312535423847214 2.312535423847214 2.312535423847214 2.312535423847214 2.312535423847214
          2.312535423847214 2.312535423847214 2.312535423847214 2.312535423847214 2.312535423847214 2.312535423847214
          2.312535423847214 2.312535423847214 2.312535423847214 2.312535423847214 2.312535423847214 2.312535423847214
          2.312535423847214 2.312535423847214 2.312535423847214 2.312535423847214 2.312535423847214 2.312535423847214
          2.312535423847214 2.312535423847214 2.312535423847214 2.312535423847214 2.312535423847214 2.312535423847214
          2.312535423847214 2.312535423847214 2.312535423847214 2.312535423847214 2.312535423847214 2.312535423847214
          2.312535423847214 2.312535423847214 2.312535423847214 2.312535423847214 2.312535423847214 2.312535423847214
          2.312535423847214 2.312535423847214 2.312535423847214 2.312535423847214 2.312535423847214 2.312535423847214
          2.312535423847214 2.312535423847214 2.312535423847214 2.312535423847214 2.312535423847214 2.312535423847214
          2.312535423847214 
        </DataArray>
      </PointData>
      <CellData>
        <DataArray type="Float32" Name="averaged zvalue" NumberOfComponents="1" format="ascii" RangeMin="0.19698727429629675" RangeMax="2.312535423847214">
          2.312535423847214 2.312535423847214 2.312535423847214 2.312535423847214 2.312535423847214 2.312535423847214
          2.312535423847214 2.312535423847214 2.312535423847214 2.312535423847214 2.312535423847214 2.312535423847214
          2.312535423847214 2.312535423847214 2.312535423847214 2.312535423847214 2.312535423847214 2.312535423847214
          2.312535423847214 2.312535423847214 2.312535423847214 2.312535423847214 2.312535423847214 2.312535423847214
          2.312535423847214 2.312535423847214 2.312535423847214 2.312535423847214 2.312535423847214 2.312535423847214
          2.312535423847214 2.312535423847214 2.312535423847214 2.312535423847214 2.312535423847214 2.312535423847214
          2.312535423847214 2.312535423847214 2.312535423847214 2.312535423847214 2.312535423847214 2.312535423847214
          2.312535423847214 2.312535423847214 2.312535423847214 2.312535423847214 2.312535423847214 2.312535423847214
          2.312535423847214 2.312535423847214 2.312535423847214 2.312535423847214 2.312535423847214 2.312535423847214
          2.312535423847214 2.312535423847214 2.312535423847214 2.312535423847214 2.312535423847214 2.312535423847214
          2.312535423847214 2.312535423847214 2.312535423847214 2.312535423847214 2.312535423847214 2.312535423847214
          2.312535423847214 2.312535423847214 2.312535423847214 2.312535423847214 2.312535423847214 2.312535423847214
          2.312535423847214 2.312535423847214 2.312535423847214 2.312535423847214 2.312535423847214 2.312535423847214
          2.312535423847214 2.312535423847214 2.312535423847214 2.312535423847214 2.312535423847214 2.312535423847214
          2.312535423847214 2.312535423847214 2.312535423847214 2.312535423847214 2.312535423847214 2.312535423847214
          2.312535423847214 2.312535423847214 2.312535423847214 2.312535423847214 2.312535423847214 2.312535423847214
          2.312535423847214 2.312535423847214 2.312535423847214 2.312535423847214 2.312535423847214 2.312535423847214
          2.312535423847214 2.312535423847214 2.312535423847214 2.312535423847214 2.312535423847214 2.312535423847214
          2.312535423847214 2.312535423847214 2.312535423847214 2.312535423847214 2.312535423847214 2.312535423847214
          2.312535423847214 2.312535423847214 2.312535423847214 2.312535423847214 2.312535423847214 2.312535423847214
          2.312535423847214 2.312535423847214 2.312535423847214 2.312535423847214 2.312535423847214 2.312535423847214
          2.312535423847214 2.312535423847214 2.312535423847214 2.312535423847214 2.312535423847214 2.312535423847214
          2.2967995107249193 2.2790045049840657 2.2844598922526056 2.302254897993459 2.312535423847214 2.312535423847214
          2.312535423847214 2.312535423847214 2.312535423847214 2.312535423847214 2.312535423847214 2.312535423847214
          2.312535423847214 2.312535423847214 2.312535423847214 2.312535423847214 2.312535423847214 2.312535423847214
          2.312535423847214 2.312535423847214 2.312535423847214 2.312535423847214 2.312535423847214 2.312535423847214
          2.312535423847214 2.312535423847214 2.297554445281355 2.2355182066782016 2.1570056994940243 2.098288664761784
          2.0326392988284527 1.9886016203485404 1.9996449212719414 2.0462263387659654 2.10649322510879 2.1700879222400107
          2.234777389166958 2.289392226357019 2.312535423847214 2.312535423847214 2.312535423847214 2.312535423847214
          2.312535423847214 2.312535423847214 2.312535423847214 2.312535423847214 2.312535423847214 2.312535423847214
          2.312535423847214 2.312535423847214 2.312535423847214 2.312535423847214 2.312535423847214 2.312535423847214
          2.312535423847214 2.266896581380988 2.1446080723980594 1.971756713434726 1.8095938913396372 1.6883641713587738
          1.5889471939421556 1.5352990064170484 1.5385459736545983 1.5867354813195638 1.6795502907502455 1.8033152610301497
          1.9351492604109355 2.0613086103346423 2.168828893473259 2.2640831745402124 2.312535423847214 2.312535423847214
          2.312535423847214 2.312535423847214 2.312535423847214 2.312535423847214 2.312535423847214 2.312535423847214
          2.312535423847214 2.312535423847214 2.312535423847214 2.312535423847214 2.312535423847214 2.312535423847214
          2.2715133114797514 2.1003498493650996 1.8472260296636434 1.6302692025865682 1.4734621836761752 1.362649468913699
          1.2783373142295802 1.2285051888209948 1.216580439618499 1.2428884304487418 1.3167229536079181 1.4292025712027363
          1.5562456756480052 1.688389062669306 1.846079141437122 2.0486163394405112 2.2372384879341762 2.312535423847214
          2.312535423847214 2.312535423847214 2.312535423847214 2.312535423847214 2.312535423847214 2.312535423847214
          2.312535423847214 2.312535423847214 2.312535423847214 2.312535423847214 2.312535423847214 2.3049815123452566
          2.1545870391030233 1.8489312122472175 1.5677971342354806 1.3683898546891249 1.240112902640222 1.1620271443071042
          1.1046966912765446 1.0549672136446049 1.0211119805811224 1.0264101162362391 1.0867289583962265 1.1968235731292576
          1.3228419234174627 1.4360388131594346 1.5599366465283682 1.7516639833083096 2.03713151977449 2.257246796733605
          2.312535423847214 2.312535423847214 2.312535423847214 2.312535423847214 2.312535423847214 2.312535423847214
          2.312535423847214 2.312535423847214 2.312535423847214 2.312535423847214 2.312535423847214 2.2334408367590655
          1.959852922944679 1.6188402187309454 1.369594941329664 1.2048562394717717 1.113732199627864 1.0681394355193754
          1.0196780640304912 0.935414353921015 0.8549331406151479 0.8427279206259843 0.9069556357771815 1.0365312228085704
          1.1974837549370525 1.3251837447229606 1.4165387151791795 1.5535059673007792 1.8180598248194557 2.1507246832474616
          2.312535423847214 2.312535423847214 2.312535423847214 2.312535423847214 2.312535423847214 2.312535423847214
          2.312535423847214 2.312535423847214 2.312535423847214 2.312535423847214 2.300672607863439 2.1026203382378457
          1.7435661219810978 1.4492756297552427 1.2502172637257258 1.1310256830713965 1.0743915193073752 1.0454008738005418
          0.9736370688736165 0.8228346244518985 0.6830636149833126 0.6529986397339448 0.7227104999014737 0.8737258020779093
          1.0921544930730813 1.2837675425904709 1.381257380427043 1.4628975914623974 1.6614122847878643 2.0166959372207875
          2.270695231325619 2.312535423847214 2.312535423847214 2.312535423847214 2.312535423847214 2.312535423847214
          2.312535423847214 2.312535423847214 2.312535423847214 2.312535423847214 2.237966150925344 1.941475757039615
          1.5757624844602796 1.3394120934878955 1.1927390883914764 1.114698486667594 1.0817083026067846 1.0424142543266666
          0.9200377184962697 0.7101176117008059 0.5352971776462362 0.48722092690234026 0.5483567519987135 0.7097757226635886
          0.9719265901630324 1.2314999218283142 1.3692785810320622 1.4270222497074347 1.557226061661404 1.8671925081939662
          2.1930660489838325 2.312535423847214 2.312535423847214 2.312535423847214 2.312535423847214 2.312535423847214
          2.312535423847214 2.312535423847214 2.312535423847214 2.312535423847214 2.1583960172017713 1.7916111087026607
          1.4615159597869956 1.2753501593137995 1.1702752692864402 1.122052590575049 1.095663832413909 1.020076237655764
          0.8378987544774631 0.594792701399641 0.413500819094756 0.35159655306476495 0.4009683941940111 0.5745792832041633
          0.85829963856995 1.1471048343752568 1.3214683081455343 1.3878916227901095 1.480661962082752 1.7505796770210038
          2.1295212366958434 2.312535423847214 2.312535423847214 2.312535423847214 2.312535423847214 2.312535423847214
          2.312535423847214 2.312535423847214 2.312535423847214 2.312535423847214 2.117973311940785 1.7111510374169556
          1.3919323130988166 1.2337211310738683 1.160149638167145 1.133295873490565 1.1028663129154803 0.9862289769003836
          0.7520750223884747 0.48513619712120215 0.3038339660233089 0.24485631692129836 0.3141243319072911 0.5213430490060522
          0.8065177464907145 1.0738051348400894 1.2506493859817431 1.3262356563241298 1.4091789514527797 1.661889638787876
          2.0717318705005243 2.303369838984643 2.312535423847214 2.312535423847214 2.312535423847214 2.312535423847214
          2.312535423847214 2.312535423847214 2.312535423847214 2.312535423847214 2.0953975830694 1.665440281652142
          1.346887131284701 1.2027441636316887 1.1540179399381432 1.1472224079815816 1.1234631225825158 0.9892726370274885
          0.7156194278164222 0.4131215014588522 0.22018885115697223 0.19698727429629675 0.3523674776579281 0.6106437048170971
          0.8580048332039005 1.0566124584427492 1.198114680296536 1.26393504399024 1.3488422193417164 1.6066626271252087
          2.0206033677577855 2.2808645336826756 2.312535423847214 2.312535423847214 2.312535423847214 2.312535423847214
          2.312535423847214 2.312535423847214 2.312535423847214 2.312535423847214 2.0917743639380473 1.6533449966245637
          1.3261017031152549 1.184766518383822 1.1566067860554003 1.1777838395868176 1.1805614539685712 1.0576838055197215
          0.7593283385224412 0.4096504963890165 0.2101902772355152 0.28150139584158573 0.5518928264724193 0.8228322318262065
          0.9966928136504356 1.1077281544360165 1.192514728923497 1.2347715957624699 1.3260841321205517 1.5999506523305522
          2.0083255259165673 2.270059263217929 2.312535423847214 2.312535423847214 2.312535423847214 2.312535423847214
          2.312535423847214 2.312535423847214 2.312535423847214 2.312535423847214 2.1356793847396864 1.7173593830000786
          1.3511233017224116 1.190407777225154 1.1729943359076864 1.227982962321334 1.2665108332940442 1.1691521364665185
          0.8706580242379399 0.5061086688940053 0.35845163970571375 0.5436017318430315 0.8534317762668923 1.0746207848243743
          1.1742133214458936 1.2075822568426455 1.2314073637019733 1.2473958466246104 1.3496987548490702 1.6401829855489984
          2.045152482378902 2.2849266846594625 2.312535423847214 2.312535423847214 2.312535423847214 2.312535423847214